# LAMMPS data file written by python_NSAKIB
184 atoms
2 atom types
0.0 72.99 xlo xhi
0.0 6.40113328 ylo yhi
0.0 10.0 zlo zhi

Mass

1  12.0 # C

Atoms  # atomic

1	1	52.18933142267026	5.653615047873107	5.0
2	1	45.73732626134014	0.09792544111277074	5.0
3	1	51.197763797016435	3.3809529991333482	5.0
4	2	51.050466400070256	4.762748534061926	5.0
5	1	48.11775679630817	0.5844426769977172	5.0
6	2	47.84170752227189	1.9525370707652199	5.0
7	1	48.884466708701424	2.8771798311551753	5.0
8	2	50.19508147295018	2.42631775379794	5.0
9	2	53.551734379965	5.160128510102574	5.0
10	1	54.909924812098424	5.692157007104269	5.0
11	2	52.460296309897736	2.9143735441158207	5.0
12	1	53.553050160006244	3.770074045468706	5.0
13	2	54.65563316281827	2.939841348397405	5.0
14	1	9.769107186830801	2.8522061872935693	5.0
15	1	44.149398017644586	1.9071830384632296	5.0
16	2	45.47268400095113	1.4684844707309244	5.0
17	1	46.52183229467876	2.3936624528721784	5.0
18	2	43.0981385044455	0.9823710466948298	5.0
19	1	49.71441174560843	5.189200637839305	5.0
20	2	48.653506753966745	4.257390364686737	5.0
21	2	64.80563370731694	5.366170272847627	5.0
22	1	64.53698184187442	3.9939422019100608	5.0
23	2	72.72820363817304	1.8085578689167028	5.0
24	1	72.45958437846517	0.4362243499898882	5.0
25	1	54.25974308247204	1.586381852726175	5.0
26	1	52.854555260701105	1.5553834353457612	5.0
27	1	1.8462241863631361	0.009071606727170334	5.0
28	2	0.530415621447887	5.933590256619891	5.0
29	1	0.2617963617400008	4.5612567376930775	5.0
30	1	47.32502732905104	4.692067052164368	5.0
31	2	47.06358192306286	6.062100967417964	5.0
32	2	46.26998338658073	3.7669353794710307	5.0
33	1	63.74454494435043	6.2697807541258115	5.0
34	1	65.33010949346043	1.717652823454504	5.0
35	2	65.59804633285097	3.090145457753924	5.0
36	2	64.01470653368325	1.2407706216116792	5.0
37	2	59.272007131314375	2.0914035279671275	5.0
38	1	58.98602405145441	0.7216920076827629	5.0
39	2	58.45801758970095	4.376989318689199	5.0
40	1	57.38609766439909	5.2848402766533775	5.0
41	2	56.055787454502685	4.82311460378454	5.0
42	1	58.22134370408847	2.9966949581097273	5.0
43	1	55.906466464073205	3.442364743054455	5.0
44	2	56.92097127044639	2.5083799815218297	5.0
45	2	55.253034873568616	0.6471598558523662	5.0
46	1	56.59305491156257	1.1349266462895236	5.0
47	2	57.665497424192004	0.2462317575987247	5.0
48	2	51.86210556930039	0.6074876228214654	5.0
49	2	49.446893429998106	0.14938464652735936	5.0
50	1	50.51381277544577	1.055489739065167	5.0
51	2	12.407377436951615	3.7982626685085483	5.0
52	2	14.003975948458628	5.648122598927021	5.0
53	1	15.324502575721029	6.1235828490110595	5.0
54	2	14.768656295824567	3.373119648500054	5.0
55	1	13.717992868598655	4.278411078642657	5.0
56	1	8.184366292596104	1.0036443337621586	5.0
57	2	8.45301815803861	2.3758724046997215	5.0
58	2	1.3226453615095919	3.657490932938211	5.0
59	1	1.0540295344198058	2.285160835115567	5.0
60	1	8.975293466229788	5.129043984998103	5.0
61	2	10.035239496230172	4.225100638634226	5.0
62	1	11.349582785989595	4.702665202102072	5.0
63	1	19.43826561994804	1.2096860965072078	5.0
64	2	18.08007518781461	0.6776575995055162	5.0
65	1	16.934212545410347	1.5467000028252436	5.0
66	2	43.89169174981865	3.279055090597176	5.0
67	1	44.94452799771866	4.203941768992374	5.0
68	2	44.684467224845164	5.574881020574028	5.0
69	1	59.77824174554043	4.849791748922705	5.0
70	2	62.42818151716446	5.793371278557718	5.0
71	1	60.582622562961426	2.5715519381012335	5.0
72	2	61.64041721392345	1.6671494045077133	5.0
73	2	60.842299388266895	3.945828054412036	5.0
74	1	62.95476050368287	2.144713967975557	5.0
75	2	63.22089281308224	3.517608419316213	5.0
76	1	62.15918896557069	4.42144789266183	5.0
77	1	61.366612166697095	0.2954882195639104	5.0
78	2	11.623387833215943	6.07432638704587	5.0
79	2	6.076066517303842	2.803134676058685	5.0
80	1	6.599303326146916	5.555972662479745	5.0
81	2	7.659890506452612	4.652161783155275	5.0
82	1	7.391953667062066	3.2796691488558563	5.0
83	2	20.800668577242778	0.7161995587366778	5.0
84	2	19.436949839906795	2.5997405611410787	5.0
85	2	6.868378411485586	0.5271060615924892	5.0
86	1	5.8074570307976074	1.430828109185144	5.0
87	2	60.04905200650498	6.220615058216338	5.0
88	2	66.39069667376613	0.8138419441300377	5.0
89	1	71.66735463840345	2.71232367367157	5.0
90	1	66.12162158842744	5.842708545017293	5.0
91	2	2.907044790629572	5.506435786707306	5.0
92	1	2.638470849063762	4.134091840842993	5.0
93	1	4.22283138836273	5.983065178953574	5.0
94	2	3.699329163550094	3.2303230257439606	5.0
95	1	5.015165950233725	3.7069104921077938	5.0
96	2	5.28360097101598	5.079287358530738	5.0
97	2	9.24545505556261	0.10003385248397245	5.0
98	1	14.531982410212079	1.9928252879205837	5.0
99	2	15.603902335513945	1.0849743299564074	5.0
100	2	10.83081103434235	1.9483667139479528	5.0
101	1	10.561818482748578	0.5764433280520624	5.0
102	1	12.147700611646147	2.42398655219775	5.0
103	2	13.211758254372604	1.5200228576870765	5.0
104	1	12.94094799340806	0.14919954839344654	5.0
105	1	20.529703690015292	3.455441062493966	5.0
106	2	17.08353353583983	2.9274498635553288	5.0
107	1	18.334366837094766	3.4299732582123763	5.0
108	1	16.06902872946665	3.8614346250879543	5.0
109	2	16.396945088350463	5.234887960320259	5.0
110	1	17.73696512634442	5.722654750757415	5.0
111	2	18.73025691744099	4.783432753883609	5.0
112	1	21.12789443061265	5.762326983788318	5.0
113	2	20.135444739211934	4.814431171264019	5.0
114	1	3.430717268804873	1.8579973392962947	5.0
115	2	2.1148811172530024	1.3813983446527072	5.0
116	2	4.4915852286894795	0.9542440668408936	5.0
117	2	71.14377581354991	6.360742999882608	5.0
118	1	70.87511888266005	4.9884162619570755	5.0
119	2	71.93597046549324	4.084653771494214	5.0
120	1	70.08295520928348	0.8633788199024743	5.0
121	1	67.70639902889707	1.290527248079041	5.0
122	2	68.76716861155032	0.386749427656211	5.0
123	2	70.35152915084929	2.235722765766785	5.0
124	2	27.25267373857291	6.2718891654970115	5.0
125	2	30.423094644095922	2.6531615628451686	5.0
126	1	29.89186149546754	5.387443559914953	5.0
127	1	21.939533599842783	1.6070660725478587	5.0
128	2	23.275588254304612	1.1806139687704753	5.0
129	2	21.792236202896614	2.9888616074764305	5.0
130	2	69.55928273110817	4.511817267313487	5.0
131	2	67.18254296911545	4.938986497424636	5.0
132	1	66.9139334826092	3.566679930551097	5.0
133	1	68.49841477122357	5.415570539768885	5.0
134	1	69.29067083636295	3.139491580865821	5.0
135	2	67.97483404967932	2.6629041145019894	5.0
136	2	24.87224320360487	5.785371929612066	5.0
137	1	23.543106569914933	6.220429960082426	5.0
138	2	22.47618722446726	5.314324867544614	5.0
139	1	22.79491852696286	3.9434968528118404	5.0
140	1	27.5173159989619	4.901330135878856	5.0
141	2	28.840601982268456	4.462631568146554	5.0
142	1	29.098308250094398	3.0907595160126076	5.0
143	2	32.00767119513051	0.8442175502655155	5.0
144	1	30.682947748531188	1.2819425901269734	5.0
145	2	29.630606223050584	0.35738246656737116	5.0
146	1	42.56690535581712	3.7166530437646133	5.0
147	1	31.47537207206493	3.577924658222926	5.0
148	2	31.21607737756518	4.949385037824451	5.0
149	2	35.96897168371788	5.923119266992254	5.0
150	1	24.336493245946297	2.1124242419230423	5.0
151	2	24.10553329121161	3.4926347754546083	5.0
152	1	25.14829247764115	4.417277535844562	5.0
153	2	26.468167705234283	3.9761521537376034	5.0
154	1	43.35939377686246	6.012432140042409	5.0
155	2	42.307052251381855	5.087872016482809	5.0
156	1	33.05984106389558	1.768885065306713	5.0
157	1	33.85213598263011	4.064892617839033	5.0
158	2	32.79999582334767	3.140169992827078	5.0
159	2	40.722062591211824	0.49569887776915816	5.0
160	1	41.77392262234786	1.4204295687853337	5.0
161	2	41.51462792784812	2.7918899483868564	5.0
162	1	40.19000417656537	3.2296446137827046	5.0
163	2	39.13786401728293	2.3049219887707526	5.0
164	1	39.39758994550392	0.9335767519677505	5.0
165	2	33.59241005440912	5.436237854642032	5.0
166	1	32.267937408701215	5.874115728840625	5.0
167	1	34.64443312833236	6.3609506394812145	5.0
168	1	25.92641807685018	0.30771363919181893	5.0
169	2	25.664972670862003	1.6777475544454128	5.0
170	1	26.720016613332312	2.6028792271387515	5.0
171	1	28.30553277506788	0.7949335860357525	5.0
172	2	28.045472002194376	2.1658728376174086	5.0
173	2	38.34556687158068	0.008863967128566408	5.0
174	2	39.93015893601746	4.6009295413030715	5.0
175	1	38.60554078999362	5.038710553782698	5.0
176	1	40.98232880478253	5.5255970563442665	5.0
177	1	37.02102831619516	0.4466953396175268	5.0
178	2	34.38445920991942	1.331104052827086	5.0
179	1	36.2288340556293	4.551809451817735	5.0
180	2	37.5534223566828	4.114013250494881	5.0
181	1	37.813276314184094	2.7427139575064112	5.0
182	2	35.176723685728945	3.6271006491033715	5.0
183	1	35.436577643230244	2.2558013561149033	5.0
184	2	36.76116594428374	1.8180051547920522	5.0
