# LAMMPS data file written by python_NSAKIB
276 atoms
2 atom types
0.0 99.9963 xlo xhi
0.0 8.7695525936 ylo yhi
0.0 23.364029 zlo zhi
 
Masses
 
1  78.96000000     # Se
2  183.8400000     # W
 
Atoms  # charge

1	1	0.0	71.49938404905826	7.7454526155861565	13.3648
2	1	0.0	71.49938404905826	7.7454526155861565	9.99923
3	1	0.0	62.66013697803599	0.13415785432449592	13.3648
4	1	0.0	62.66013697803599	0.13415785432449592	9.99923
5	1	0.0	70.14093640191253	4.631905608812687	13.3648
6	1	0.0	70.14093640191253	4.631905608812687	9.99923
7	2	0.0	69.93913896809626	6.524965491664839	11.6821
8	1	0.0	65.9213268109422	0.8006864674868727	13.3648
9	1	0.0	65.9213268109422	0.8006864674868727	9.99923
10	2	0.0	65.5431393055125	2.6749757869483513	11.6821
11	1	0.0	66.97171939092095	3.9417363686825904	13.3648
12	1	0.0	66.97171939092095	3.9417363686825904	9.99923
13	2	0.0	68.76726161794176	3.3240553227031784	11.6821
14	2	0.0	73.36587610055206	7.069376058840526	11.6821
15	1	0.0	75.22659699257484	7.79825509973285	13.3648
16	1	0.0	75.22659699257484	7.79825509973285	9.99923
17	2	0.0	71.8706059445599	3.9926917554386745	11.6821
18	1	0.0	73.36767871920856	5.1650014422921275	13.3648
19	1	0.0	73.36767871920856	5.1650014422921275	9.99923
20	2	0.0	74.87821743306104	4.027582647304445	11.6821
21	1	0.0	13.383676845958199	3.9075224765921903	13.3648
22	1	0.0	13.383676845958199	3.9075224765921903	9.99923
23	1	0.0	60.484675284173086	2.6128407626946246	13.3648
24	1	0.0	60.484675284173086	2.6128407626946246	9.99923
25	2	0.0	62.29757708130306	2.0118237249013666	11.6821
26	1	0.0	63.734910243709905	3.2793175604348845	13.3648
27	1	0.0	63.734910243709905	3.2793175604348845	9.99923
28	2	0.0	59.04444975109034	1.345848333971917	11.6821
29	1	0.0	68.10874409148356	7.109204873839849	13.3648
30	1	0.0	68.10874409148356	7.109204873839849	9.99923
31	2	0.0	66.65530425293444	5.83262479962083	11.6821
32	2	0.0	88.78371817902422	7.351653273801249	11.6821
33	1	0.0	88.41566512336796	5.471700816616783	13.3648
34	1	0.0	88.41566512336796	5.471700816616783	9.99923
35	2	0.0	99.63763898429707	2.477724280415883	11.6821
36	1	0.0	99.26963059849729	0.5976273594861469	13.3648
37	1	0.0	99.26963059849729	0.5976273594861469	9.99923
38	1	0.0	74.33584802298671	2.17334313823486	13.3648
39	1	0.0	74.33584802298671	2.17334313823486	9.99923
40	1	0.0	72.41074070716051	2.130875306423693	13.3648
41	1	0.0	72.41074070716051	2.130875306423693	9.99923
42	1	0.0	2.5293271353174966	0.012428101216223359	13.3648
43	1	0.0	2.5293271353174966	0.012428101216223359	9.99923
44	2	0.0	0.7266694013836053	8.129018651569252	11.6821
45	1	0.0	0.35866101558380115	6.248921730639517	13.3648
46	1	0.0	0.35866101558380115	6.248921730639517	9.99923
47	1	0.0	64.83528744079993	6.428131861465184	13.3648
48	1	0.0	64.83528744079993	6.428131861465184	9.99923
49	2	0.0	64.47710723459613	8.305078325362611	11.6821
50	2	0.0	63.38987723961561	5.160701469875312	11.6821
51	1	0.0	87.3300265737601	8.589599633152362	13.3648
52	1	0.0	87.3300265737601	8.589599633152362	9.99923
53	1	0.0	89.5022500060408	2.3531843681326707	13.3648
54	1	0.0	89.5022500060408	2.3531843681326707	9.99923
55	2	0.0	89.86932347600583	4.233499277122876	11.6821
56	2	0.0	87.70014795114606	1.6998557516080006	11.6821
57	2	0.0	81.2026497699007	2.8652228333149647	11.6821
58	1	0.0	80.81085295049255	0.9887180505253852	13.3648
59	1	0.0	80.81085295049255	0.9887180505253852	9.99923
60	2	0.0	80.08748409789031	5.996475366604202	11.6821
61	1	0.0	78.61895380022676	7.240231179015128	13.3648
62	1	0.0	78.61895380022676	7.240231179015128	9.99923
63	2	0.0	76.79642881266868	6.60766700718482	11.6821
64	1	0.0	79.76324087460121	4.105472092610326	13.3648
65	1	0.0	79.76324087460121	4.105472092610326	9.99923
66	1	0.0	76.59185905578029	4.716039697984604	13.3648
67	1	0.0	76.59185905578029	4.716039697984604	9.99923
68	2	0.0	77.98173064051156	3.436480574684907	11.6821
69	2	0.0	75.69665777678901	0.8866090025177418	11.6821
70	1	0.0	77.53248522884073	1.5548495054166473	13.3648
71	1	0.0	77.53248522884073	1.5548495054166473	9.99923
72	2	0.0	79.00173147114305	0.33733750791025285	11.6821
73	2	0.0	71.05108462994154	0.8322580432654076	11.6821
74	2	0.0	67.74224399909741	0.20465696574248235	11.6821
75	1	0.0	69.20392350236071	1.446020942519279	13.3648
76	1	0.0	69.20392350236071	1.446020942519279	9.99923
77	2	0.0	16.998107088623712	5.2036198558567115	11.6821
78	2	0.0	19.185447049388323	7.737927960530019	11.6821
79	1	0.0	20.994568528737812	8.389308503145152	13.3648
80	1	0.0	20.994568528737812	8.389308503145152	9.99923
81	2	0.0	20.23305912527966	4.621173918445074	11.6821
82	1	0.0	18.79365022998016	5.86142317774044	13.3648
83	1	0.0	18.79365022998016	5.86142317774044	9.99923
84	1	0.0	11.212581820856665	1.3749927372541573	13.3648
85	1	0.0	11.212581820856665	1.3749927372541573	9.99923
86	2	0.0	11.580634876512896	3.2549451944386187	11.6821
87	2	0.0	1.812024145268141	5.010762578125349	11.6821
88	1	0.0	1.444020462155134	3.1306703441083266	13.3648
89	1	0.0	1.444020462155134	3.1306703441083266	9.99923
90	1	0.0	12.296152048734811	7.026790259447401	13.3648
91	1	0.0	12.296152048734811	7.026790259447401	9.99923
92	2	0.0	13.748278109835336	5.7883878749288895	11.6821
93	1	0.0	15.548928416805746	6.442651326879838	13.3648
94	1	0.0	15.548928416805746	6.442651326879838	9.99923
95	1	0.0	26.630423899328818	1.6572699522148748	13.3648
96	1	0.0	26.630423899328818	1.6572699522148748	9.99923
97	2	0.0	24.76970300730602	0.9283909113225572	11.6821
98	1	0.0	23.199871187212178	2.118979003870584	13.3648
99	1	0.0	23.199871187212178	2.118979003870584	9.99923
100	2	0.0	60.13161769725155	4.492305474118131	11.6821
101	1	0.0	61.57400335687457	5.759400223519553	13.3648
102	1	0.0	61.57400335687457	5.759400223519553	9.99923
103	2	0.0	61.21772009803788	7.6375869981864195	11.6821
104	1	0.0	81.89619119139039	6.644214696024107	13.3648
105	1	0.0	81.89619119139039	6.644214696024107	9.99923
106	2	0.0	85.52660867851532	7.936918651624074	11.6821
107	1	0.0	82.99819291125716	3.52302615519869	13.3648
108	1	0.0	82.99819291125716	3.52302615519869	9.99923
109	2	0.0	84.44737158307512	2.2839946841755676	11.6821
110	2	0.0	83.35395016192565	5.40578443454449	11.6821
111	1	0.0	86.24802189004554	2.938258136126513	13.3648
112	1	0.0	86.24802189004554	2.938258136126513	9.99923
113	2	0.0	86.61262315392267	4.819123534463212	11.6821
114	1	0.0	85.15808888283185	6.057383612946708	13.3648
115	1	0.0	85.15808888283185	6.057383612946708	9.99923
116	1	0.0	84.07225866837503	0.4048188608025573	13.3648
117	1	0.0	84.07225866837503	0.4048188608025573	9.99923
118	2	0.0	15.924041331505844	8.321827150252842	11.6821
119	2	0.0	8.324211128706265	3.840294506200399	11.6821
120	1	0.0	9.041045556821276	7.611682547597252	13.3648
121	1	0.0	9.041045556821276	7.611682547597252	9.99923
122	2	0.0	10.494049993840079	6.373461642922727	11.6821
123	1	0.0	10.126976523875031	4.493146733932523	13.3648
124	1	0.0	10.126976523875031	4.493146733932523	9.99923
125	2	0.0	28.496915950822608	0.9811933954692488	11.6821
126	2	0.0	26.628621280672313	3.561644568763278	11.6821
127	2	0.0	9.409678423735253	0.7221353043817103	11.6821
128	1	0.0	7.956216132192723	1.9602345095836475	13.3648
129	1	0.0	7.956216132192723	1.9602345095836475	9.99923
130	2	0.0	82.26720124891183	8.522242629756384	11.6821
131	2	0.0	90.9552544430596	1.1149634634581518	11.6821
132	1	0.0	98.18427585461274	3.715883432930051	13.3648
133	1	0.0	98.18427585461274	3.715883432930051	9.99923
134	1	0.0	90.5866215761456	8.004510706673692	13.3648
135	1	0.0	90.5866215761456	8.004510706673692	9.99923
136	2	0.0	3.982651363162514	7.54381702778901	11.6821
137	1	0.0	3.614705063217354	5.663705821954901	13.3648
138	1	0.0	3.614705063217354	5.663705821954901	9.99923
139	1	0.0	5.7852790020569405	8.196799295166397	13.3648
140	1	0.0	5.7852790020569405	8.196799295166397	9.99923
141	2	0.0	5.068080954063629	4.425542545269226	11.6821
142	1	0.0	6.8707773518202035	5.078467374187678	13.3648
143	1	0.0	6.8707773518202035	5.078467374187678	9.99923
144	2	0.0	7.238533330291894	6.958623681187112	11.6821
145	2	0.0	12.666273426120776	0.13704637790304228	11.6821
146	1	0.0	19.90881590199055	2.7301706444511997	13.3648
147	1	0.0	19.90881590199055	2.7301706444511997	9.99923
148	2	0.0	21.377346199654106	1.4864148320402784	11.6821
149	2	0.0	14.83821111704902	2.6692623981086956	11.6821
150	1	0.0	14.469691321365552	0.7897273594313257	13.3648
151	1	0.0	14.469691321365552	0.7897273594313257	9.99923
152	1	0.0	16.642349837955223	3.3208615765109175	13.3648
153	1	0.0	16.642349837955223	3.3208615765109175	9.99923
154	2	0.0	18.100108808490468	2.082431315031295	11.6821
155	1	0.0	17.729098750969044	0.20440338129902177	13.3648
156	1	0.0	17.729098750969044	0.20440338129902177	9.99923
157	1	0.0	28.125694055320952	4.733954255616734	13.3648
158	1	0.0	28.125694055320952	4.733954255616734	9.99923
159	2	0.0	23.40444094410057	4.0106063130708005	11.6821
160	1	0.0	25.118082566819833	4.699063363750956	13.3648
161	1	0.0	25.118082566819833	4.699063363750956	9.99923
162	1	0.0	22.01456935936931	5.290165436370498	13.3648
163	1	0.0	22.01456935936931	5.290165436370498	9.99923
164	2	0.0	22.463814771040138	7.171796505638756	11.6821
165	1	0.0	24.299642223091855	7.840037008537659	13.3648
166	1	0.0	24.299642223091855	7.840037008537659	9.99923
167	2	0.0	25.66045197689416	6.553302872820545	11.6821
168	1	0.0	28.94521536993933	7.894387967789997	13.3648
169	1	0.0	28.94521536993933	7.894387967789997	9.99923
170	2	0.0	27.58555929272035	6.595770704631707	11.6821
171	1	0.0	4.7000826582626765	2.545456354835924	13.3648
172	1	0.0	4.7000826582626765	2.545456354835924	9.99923
173	2	0.0	2.8973871306366137	1.892515732174209	11.6821
174	2	0.0	6.153471763304587	1.3073143715720243	11.6821
175	2	0.0	97.46697286456339	8.714217909839174	11.6821
176	1	0.0	97.09891286924427	6.834130278881194	13.3648
177	1	0.0	97.09891286924427	6.834130278881194	9.99923
178	2	0.0	98.55227953772575	5.595975666947073	11.6821
179	1	0.0	96.01364863671839	1.1828289832663899	13.3648
180	1	0.0	96.01364863671839	1.1828289832663899	9.99923
181	1	0.0	92.75776666958899	1.7680223298682864	13.3648
182	1	0.0	92.75776666958899	1.7680223298682864	9.99923
183	2	0.0	94.21102099782394	0.5298467158890091	11.6821
184	2	0.0	96.38159493666353	3.062940189100496	11.6821
185	2	0.0	37.33616302184489	8.592488156730907	11.6821
186	2	0.0	41.67963966241142	3.634831341097881	11.6821
187	1	0.0	40.951850248790535	7.3807976770834856	13.3648
188	1	0.0	40.951850248790535	7.3807976770834856	9.99923
189	1	0.0	30.057161031784613	2.2016805193905666	13.3648
190	1	0.0	30.057161031784613	2.2016805193905666	9.99923
191	2	0.0	31.88755590839732	1.6174411372155513	11.6821
192	2	0.0	29.855363597968363	4.09474040224271	11.6821
193	2	0.0	95.2962173416182	6.181189656219477	11.6821
194	2	0.0	92.04008386768817	6.766411501471751	11.6821
195	1	0.0	91.67208887117461	4.8863515048550035	13.3648
196	1	0.0	91.67208887117461	4.8863515048550035	9.99923
197	1	0.0	93.8428282365763	7.4193316394833735	13.3648
198	1	0.0	93.8428282365763	7.4193316394833735	9.99923
199	1	0.0	94.92821904581724	4.301103465786174	13.3648
200	1	0.0	94.92821904581724	4.301103465786174	9.99923
201	2	0.0	93.12552264806067	3.648178636867726	11.6821
202	2	0.0	34.07497318893868	7.925959543568531	11.6821
203	1	0.0	32.25405600078346	8.521989045312925	13.3648
204	1	0.0	32.25405600078346	8.521989045312925	9.99923
205	2	0.0	30.79237649752015	7.280625068536121	11.6821
206	1	0.0	31.22903838193912	5.4025906883522214	13.3648
207	1	0.0	31.22903838193912	5.4025906883522214	9.99923
208	1	0.0	37.69872291857781	6.714822286154034	13.3648
209	1	0.0	37.69872291857781	6.714822286154034	9.99923
210	2	0.0	39.51162471570779	6.113805248360779	11.6821
211	1	0.0	39.864682302629326	4.234340536937273	13.3648
212	1	0.0	39.864682302629326	4.234340536937273	9.99923
213	2	0.0	43.850509537328804	1.1565780438637563	11.6821
214	1	0.0	42.03563841548773	1.7562613484739538	13.3648
215	1	0.0	42.03563841548773	1.7562613484739538	9.99923
216	2	0.0	40.5939305255793	0.48961397919729854	11.6821
217	1	0.0	58.31666033746946	5.091814669957521	13.3648
218	1	0.0	58.31666033746946	5.091814669957521	9.99923
219	1	0.0	43.12125973872895	4.901756781765409	13.3648
220	1	0.0	43.12125973872895	4.901756781765409	9.99923
221	2	0.0	42.7660260072643	6.780657501819498	11.6821
222	2	0.0	49.277491206693504	8.114673395779388	11.6821
223	1	0.0	33.34099574694643	2.894021211434568	13.3648
224	1	0.0	33.34099574694643	2.894021211434568	9.99923
225	2	0.0	33.02458060895991	4.7849096423728135	11.6821
226	1	0.0	34.45316069436838	6.05167022410705	13.3648
227	1	0.0	34.45316069436838	6.05167022410705	9.99923
228	2	0.0	36.26138975617097	5.4473284506205175	11.6821
229	1	0.0	59.40236947430158	8.237032031858101	13.3648
230	1	0.0	59.40236947430158	8.237032031858101	9.99923
231	2	0.0	57.960661584393144	6.9703846625814485	11.6821
232	1	0.0	45.29198225753695	2.423372539470197	13.3648
233	1	0.0	45.29198225753695	2.423372539470197	9.99923
234	1	0.0	46.377426296203254	5.568902886439475	13.3648
235	1	0.0	46.377426296203254	5.568902886439475	9.99923
236	2	0.0	44.93599427798631	4.3020328901730975	11.6821
237	2	0.0	55.7892257499602	0.6791074625437468	11.6821
238	1	0.0	57.230273992616574	1.9459885092359073	13.3648
239	1	0.0	57.230273992616574	1.9459885092359073	9.99923
240	2	0.0	56.87504026115192	3.8248892292899934	11.6821
241	1	0.0	55.06030572189456	4.424613120882306	13.3648
242	1	0.0	55.06030572189456	4.424613120882306	9.99923
243	2	0.0	53.618873703677615	3.1577431246159313	11.6821
244	1	0.0	53.97469822534037	1.2790001501958181	13.3648
245	1	0.0	53.97469822534037	1.2790001501958181	9.99923
246	2	0.0	46.0216017745405	7.447645860859584	11.6821
247	1	0.0	44.207074249920666	8.047538548511657	13.3648
248	1	0.0	44.207074249920666	8.047538548511657	9.99923
249	1	0.0	47.462873385815335	8.714502376089264	13.3648
250	1	0.0	47.462873385815335	8.714502376089264	9.99923
251	1	0.0	35.51919276528475	0.42156768569279196	13.3648
252	1	0.0	35.51919276528475	0.42156768569279196	9.99923
253	2	0.0	35.161012559080945	2.2985141495902157	11.6821
254	1	0.0	36.60642276026527	3.56594454118009	13.3648
255	1	0.0	36.60642276026527	3.56594454118009	9.99923
256	1	0.0	38.778579901843	1.089059012868981	13.3648
257	1	0.0	38.778579901843	1.089059012868981	9.99923
258	2	0.0	38.4222966430063	2.96724578753585	11.6821
259	2	0.0	52.53342661406553	0.01214363496613598	11.6821
260	2	0.0	54.70431774234393	6.303273471585208	11.6821
261	1	0.0	52.88959088229126	6.903033458682296	13.3648
262	1	0.0	52.88959088229126	6.903033458682296	9.99923
263	1	0.0	56.14579046255207	7.570067967191646	13.3648
264	1	0.0	56.14579046255207	7.570067967191646	9.99923
265	1	0.0	50.71880879318737	0.6119726152760118	13.3648
266	1	0.0	50.71880879318737	0.6119726152760118	9.99923
267	2	0.0	47.10670911758961	1.8236125523731082	11.6821
268	1	0.0	49.633502656212144	6.235978948990297	13.3648
269	1	0.0	49.633502656212144	6.235978948990297	9.99923
270	2	0.0	51.448188628655444	5.636198153177987	11.6821
271	1	0.0	51.804188550432215	3.7575181217837836	13.3648
272	1	0.0	51.804188550432215	3.7575181217837836	9.99923
273	2	0.0	48.19211144944866	4.969127889271619	11.6821
274	1	0.0	48.54811137122544	3.0904478578774177	13.3648
275	1	0.0	48.54811137122544	3.0904478578774177	9.99923
276	2	0.0	50.362797343668724	2.4906670620651115	11.6821
