WSe2_MTB_5_3.lmp (written by Nuruzzaman Sakib with the help of ASE)
1104	atoms
2	atom types
0.0	115.586716489	xlo xhi
0.0	29.538000000	ylo yhi
0.0	1000.000000000	zlo zhi

Masses

1	78.960000000		# Se
2	183.840000000		# W

Atoms # charge

1	1	0.0	3.789717693	3.281983590	498.329456000
2	1	0.0	0.947422317	1.640983590	498.329456000
3	1	0.0	3.789717693	3.281983590	501.670544000
4	1	0.0	0.947422317	1.640983590	501.670544000
5	2	0.0	4.737168433	1.640983590	500.000000000
6	2	0.0	1.894873058	3.281983590	500.000000000
7	1	0.0	3.789717693	6.563983590	498.329456000
8	1	0.0	0.947422317	4.922983590	498.329456000
9	1	0.0	3.789717693	6.563983590	501.670544000
10	1	0.0	0.947422317	4.922983590	501.670544000
11	2	0.0	4.737168433	4.922983590	500.000000000
12	2	0.0	1.894873058	6.563983590	500.000000000
13	1	0.0	3.789717693	9.845983590	498.329456000
14	1	0.0	0.947422317	8.204983590	498.329456000
15	1	0.0	3.789717693	9.845983590	501.670544000
16	1	0.0	0.947422317	8.204983590	501.670544000
17	2	0.0	4.737168433	8.204983590	500.000000000
18	2	0.0	1.894873058	9.845983590	500.000000000
19	1	0.0	3.789717693	13.127983590	498.329456000
20	1	0.0	0.947422317	11.486983590	498.329456000
21	1	0.0	3.789717693	13.127983590	501.670544000
22	1	0.0	0.947422317	11.486983590	501.670544000
23	2	0.0	4.737168433	11.486983590	500.000000000
24	2	0.0	1.894873058	13.127983590	500.000000000
25	1	0.0	3.789717693	16.409983590	498.329456000
26	1	0.0	0.947422317	14.768983590	498.329456000
27	1	0.0	3.789717693	16.409983590	501.670544000
28	1	0.0	0.947422317	14.768983590	501.670544000
29	2	0.0	4.737168433	14.768983590	500.000000000
30	2	0.0	1.894873058	16.409983590	500.000000000
31	1	0.0	3.789717693	19.691983590	498.329456000
32	1	0.0	0.947422317	18.050983590	498.329456000
33	1	0.0	3.789717693	19.691983590	501.670544000
34	1	0.0	0.947422317	18.050983590	501.670544000
35	2	0.0	4.737168433	18.050983590	500.000000000
36	2	0.0	1.894873058	19.691983590	500.000000000
37	1	0.0	3.789717693	22.973983590	498.329456000
38	1	0.0	0.947422317	21.332983590	498.329456000
39	1	0.0	3.789717693	22.973983590	501.670544000
40	1	0.0	0.947422317	21.332983590	501.670544000
41	2	0.0	4.737168433	21.332983590	500.000000000
42	2	0.0	1.894873058	22.973983590	500.000000000
43	1	0.0	3.789717693	26.255983590	498.329456000
44	1	0.0	0.947422317	24.614983590	498.329456000
45	1	0.0	3.789717693	26.255983590	501.670544000
46	1	0.0	0.947422317	24.614983590	501.670544000
47	2	0.0	4.737168433	24.614983590	500.000000000
48	2	0.0	1.894873058	26.255983590	500.000000000
49	1	0.0	3.789717693	29.537983590	498.329456000
50	1	0.0	0.947422317	27.896983590	498.329456000
51	1	0.0	3.789717693	29.537983590	501.670544000
52	1	0.0	0.947422317	27.896983590	501.670544000
53	2	0.0	4.737168433	27.896983590	500.000000000
54	2	0.0	1.894873058	29.537983590	500.000000000
55	1	0.0	9.474308443	3.281983590	498.329456000
56	1	0.0	6.632013068	1.640983590	498.329456000
57	1	0.0	9.474308443	3.281983590	501.670544000
58	1	0.0	6.632013068	1.640983590	501.670544000
59	2	0.0	10.421759183	1.640983590	500.000000000
60	2	0.0	7.579463808	3.281983590	500.000000000
61	1	0.0	9.474308443	6.563983590	498.329456000
62	1	0.0	6.632013068	4.922983590	498.329456000
63	1	0.0	9.474308443	6.563983590	501.670544000
64	1	0.0	6.632013068	4.922983590	501.670544000
65	2	0.0	10.421759183	4.922983590	500.000000000
66	2	0.0	7.579463808	6.563983590	500.000000000
67	1	0.0	9.474308443	9.845983590	498.329456000
68	1	0.0	6.632013068	8.204983590	498.329456000
69	1	0.0	9.474308443	9.845983590	501.670544000
70	1	0.0	6.632013068	8.204983590	501.670544000
71	2	0.0	10.421759183	8.204983590	500.000000000
72	2	0.0	7.579463808	9.845983590	500.000000000
73	1	0.0	9.474308443	13.127983590	498.329456000
74	1	0.0	6.632013068	11.486983590	498.329456000
75	1	0.0	9.474308443	13.127983590	501.670544000
76	1	0.0	6.632013068	11.486983590	501.670544000
77	2	0.0	10.421759183	11.486983590	500.000000000
78	2	0.0	7.579463808	13.127983590	500.000000000
79	1	0.0	9.474308443	16.409983590	498.329456000
80	1	0.0	6.632013068	14.768983590	498.329456000
81	1	0.0	9.474308443	16.409983590	501.670544000
82	1	0.0	6.632013068	14.768983590	501.670544000
83	2	0.0	10.421759183	14.768983590	500.000000000
84	2	0.0	7.579463808	16.409983590	500.000000000
85	1	0.0	9.474308443	19.691983590	498.329456000
86	1	0.0	6.632013068	18.050983590	498.329456000
87	1	0.0	9.474308443	19.691983590	501.670544000
88	1	0.0	6.632013068	18.050983590	501.670544000
89	2	0.0	10.421759183	18.050983590	500.000000000
90	2	0.0	7.579463808	19.691983590	500.000000000
91	1	0.0	9.474308443	22.973983590	498.329456000
92	1	0.0	6.632013068	21.332983590	498.329456000
93	1	0.0	9.474308443	22.973983590	501.670544000
94	1	0.0	6.632013068	21.332983590	501.670544000
95	2	0.0	10.421759183	21.332983590	500.000000000
96	2	0.0	7.579463808	22.973983590	500.000000000
97	1	0.0	9.474308443	26.255983590	498.329456000
98	1	0.0	6.632013068	24.614983590	498.329456000
99	1	0.0	9.474308443	26.255983590	501.670544000
100	1	0.0	6.632013068	24.614983590	501.670544000
101	2	0.0	10.421759183	24.614983590	500.000000000
102	2	0.0	7.579463808	26.255983590	500.000000000
103	1	0.0	9.474308443	29.537983590	498.329456000
104	1	0.0	6.632013068	27.896983590	498.329456000
105	1	0.0	9.474308443	29.537983590	501.670544000
106	1	0.0	6.632013068	27.896983590	501.670544000
107	2	0.0	10.421759183	27.896983590	500.000000000
108	2	0.0	7.579463808	29.537983590	500.000000000
109	1	0.0	15.158899193	3.281983590	498.329456000
110	1	0.0	12.316603818	1.640983590	498.329456000
111	1	0.0	15.158899193	3.281983590	501.670544000
112	1	0.0	12.316603818	1.640983590	501.670544000
113	2	0.0	16.106349934	1.640983590	500.000000000
114	2	0.0	13.264054559	3.281983590	500.000000000
115	1	0.0	15.158899193	6.563983590	498.329456000
116	1	0.0	12.316603818	4.922983590	498.329456000
117	1	0.0	15.158899193	6.563983590	501.670544000
118	1	0.0	12.316603818	4.922983590	501.670544000
119	2	0.0	16.106349934	4.922983590	500.000000000
120	2	0.0	13.264054559	6.563983590	500.000000000
121	1	0.0	15.158899193	9.845983590	498.329456000
122	1	0.0	12.316603818	8.204983590	498.329456000
123	1	0.0	15.158899193	9.845983590	501.670544000
124	1	0.0	12.316603818	8.204983590	501.670544000
125	2	0.0	16.106349934	8.204983590	500.000000000
126	2	0.0	13.264054559	9.845983590	500.000000000
127	1	0.0	15.158899193	13.127983590	498.329456000
128	1	0.0	12.316603818	11.486983590	498.329456000
129	1	0.0	15.158899193	13.127983590	501.670544000
130	1	0.0	12.316603818	11.486983590	501.670544000
131	2	0.0	16.106349934	11.486983590	500.000000000
132	2	0.0	13.264054559	13.127983590	500.000000000
133	1	0.0	15.158899193	16.409983590	498.329456000
134	1	0.0	12.316603818	14.768983590	498.329456000
135	1	0.0	15.158899193	16.409983590	501.670544000
136	1	0.0	12.316603818	14.768983590	501.670544000
137	2	0.0	16.106349934	14.768983590	500.000000000
138	2	0.0	13.264054559	16.409983590	500.000000000
139	1	0.0	15.158899193	19.691983590	498.329456000
140	1	0.0	12.316603818	18.050983590	498.329456000
141	1	0.0	15.158899193	19.691983590	501.670544000
142	1	0.0	12.316603818	18.050983590	501.670544000
143	2	0.0	16.106349934	18.050983590	500.000000000
144	2	0.0	13.264054559	19.691983590	500.000000000
145	1	0.0	15.158899193	22.973983590	498.329456000
146	1	0.0	12.316603818	21.332983590	498.329456000
147	1	0.0	15.158899193	22.973983590	501.670544000
148	1	0.0	12.316603818	21.332983590	501.670544000
149	2	0.0	16.106349934	21.332983590	500.000000000
150	2	0.0	13.264054559	22.973983590	500.000000000
151	1	0.0	15.158899193	26.255983590	498.329456000
152	1	0.0	12.316603818	24.614983590	498.329456000
153	1	0.0	15.158899193	26.255983590	501.670544000
154	1	0.0	12.316603818	24.614983590	501.670544000
155	2	0.0	16.106349934	24.614983590	500.000000000
156	2	0.0	13.264054559	26.255983590	500.000000000
157	1	0.0	15.158899193	29.537983590	498.329456000
158	1	0.0	12.316603818	27.896983590	498.329456000
159	1	0.0	15.158899193	29.537983590	501.670544000
160	1	0.0	12.316603818	27.896983590	501.670544000
161	2	0.0	16.106349934	27.896983590	500.000000000
162	2	0.0	13.264054559	29.537983590	500.000000000
163	1	0.0	20.843489944	3.281983590	498.329456000
164	1	0.0	18.001194569	1.640983590	498.329456000
165	1	0.0	20.843489944	3.281983590	501.670544000
166	1	0.0	18.001194569	1.640983590	501.670544000
167	2	0.0	21.790940684	1.640983590	500.000000000
168	2	0.0	18.948645309	3.281983590	500.000000000
169	1	0.0	20.843489944	6.563983590	498.329456000
170	1	0.0	18.001194569	4.922983590	498.329456000
171	1	0.0	20.843489944	6.563983590	501.670544000
172	1	0.0	18.001194569	4.922983590	501.670544000
173	2	0.0	21.790940684	4.922983590	500.000000000
174	2	0.0	18.948645309	6.563983590	500.000000000
175	1	0.0	20.843489944	9.845983590	498.329456000
176	1	0.0	18.001194569	8.204983590	498.329456000
177	1	0.0	20.843489944	9.845983590	501.670544000
178	1	0.0	18.001194569	8.204983590	501.670544000
179	2	0.0	21.790940684	8.204983590	500.000000000
180	2	0.0	18.948645309	9.845983590	500.000000000
181	1	0.0	20.843489944	13.127983590	498.329456000
182	1	0.0	18.001194569	11.486983590	498.329456000
183	1	0.0	20.843489944	13.127983590	501.670544000
184	1	0.0	18.001194569	11.486983590	501.670544000
185	2	0.0	21.790940684	11.486983590	500.000000000
186	2	0.0	18.948645309	13.127983590	500.000000000
187	1	0.0	20.843489944	16.409983590	498.329456000
188	1	0.0	18.001194569	14.768983590	498.329456000
189	1	0.0	20.843489944	16.409983590	501.670544000
190	1	0.0	18.001194569	14.768983590	501.670544000
191	2	0.0	21.790940684	14.768983590	500.000000000
192	2	0.0	18.948645309	16.409983590	500.000000000
193	1	0.0	20.843489944	19.691983590	498.329456000
194	1	0.0	18.001194569	18.050983590	498.329456000
195	1	0.0	20.843489944	19.691983590	501.670544000
196	1	0.0	18.001194569	18.050983590	501.670544000
197	2	0.0	21.790940684	18.050983590	500.000000000
198	2	0.0	18.948645309	19.691983590	500.000000000
199	1	0.0	20.843489944	22.973983590	498.329456000
200	1	0.0	18.001194569	21.332983590	498.329456000
201	1	0.0	20.843489944	22.973983590	501.670544000
202	1	0.0	18.001194569	21.332983590	501.670544000
203	2	0.0	21.790940684	21.332983590	500.000000000
204	2	0.0	18.948645309	22.973983590	500.000000000
205	1	0.0	20.843489944	26.255983590	498.329456000
206	1	0.0	18.001194569	24.614983590	498.329456000
207	1	0.0	20.843489944	26.255983590	501.670544000
208	1	0.0	18.001194569	24.614983590	501.670544000
209	2	0.0	21.790940684	24.614983590	500.000000000
210	2	0.0	18.948645309	26.255983590	500.000000000
211	1	0.0	20.843489944	29.537983590	498.329456000
212	1	0.0	18.001194569	27.896983590	498.329456000
213	1	0.0	20.843489944	29.537983590	501.670544000
214	1	0.0	18.001194569	27.896983590	501.670544000
215	2	0.0	21.790940684	27.896983590	500.000000000
216	2	0.0	18.948645309	29.537983590	500.000000000
217	1	0.0	26.528080694	3.281983590	498.329456000
218	1	0.0	23.685785319	1.640983590	498.329456000
219	1	0.0	26.528080694	3.281983590	501.670544000
220	1	0.0	23.685785319	1.640983590	501.670544000
221	2	0.0	27.475531435	1.640983590	500.000000000
222	2	0.0	24.633236059	3.281983590	500.000000000
223	1	0.0	26.528080694	6.563983590	498.329456000
224	1	0.0	23.685785319	4.922983590	498.329456000
225	1	0.0	26.528080694	6.563983590	501.670544000
226	1	0.0	23.685785319	4.922983590	501.670544000
227	2	0.0	27.475531435	4.922983590	500.000000000
228	2	0.0	24.633236059	6.563983590	500.000000000
229	1	0.0	26.528080694	9.845983590	498.329456000
230	1	0.0	23.685785319	8.204983590	498.329456000
231	1	0.0	26.528080694	9.845983590	501.670544000
232	1	0.0	23.685785319	8.204983590	501.670544000
233	2	0.0	27.475531435	8.204983590	500.000000000
234	2	0.0	24.633236059	9.845983590	500.000000000
235	1	0.0	26.528080694	13.127983590	498.329456000
236	1	0.0	23.685785319	11.486983590	498.329456000
237	1	0.0	26.528080694	13.127983590	501.670544000
238	1	0.0	23.685785319	11.486983590	501.670544000
239	2	0.0	27.475531435	11.486983590	500.000000000
240	2	0.0	24.633236059	13.127983590	500.000000000
241	1	0.0	26.528080694	16.409983590	498.329456000
242	1	0.0	23.685785319	14.768983590	498.329456000
243	1	0.0	26.528080694	16.409983590	501.670544000
244	1	0.0	23.685785319	14.768983590	501.670544000
245	2	0.0	27.475531435	14.768983590	500.000000000
246	2	0.0	24.633236059	16.409983590	500.000000000
247	1	0.0	26.528080694	19.691983590	498.329456000
248	1	0.0	23.685785319	18.050983590	498.329456000
249	1	0.0	26.528080694	19.691983590	501.670544000
250	1	0.0	23.685785319	18.050983590	501.670544000
251	2	0.0	27.475531435	18.050983590	500.000000000
252	2	0.0	24.633236059	19.691983590	500.000000000
253	1	0.0	26.528080694	22.973983590	498.329456000
254	1	0.0	23.685785319	21.332983590	498.329456000
255	1	0.0	26.528080694	22.973983590	501.670544000
256	1	0.0	23.685785319	21.332983590	501.670544000
257	2	0.0	27.475531435	21.332983590	500.000000000
258	2	0.0	24.633236059	22.973983590	500.000000000
259	1	0.0	26.528080694	26.255983590	498.329456000
260	1	0.0	23.685785319	24.614983590	498.329456000
261	1	0.0	26.528080694	26.255983590	501.670544000
262	1	0.0	23.685785319	24.614983590	501.670544000
263	2	0.0	27.475531435	24.614983590	500.000000000
264	2	0.0	24.633236059	26.255983590	500.000000000
265	1	0.0	26.528080694	29.537983590	498.329456000
266	1	0.0	23.685785319	27.896983590	498.329456000
267	1	0.0	26.528080694	29.537983590	501.670544000
268	1	0.0	23.685785319	27.896983590	501.670544000
269	2	0.0	27.475531435	27.896983590	500.000000000
270	2	0.0	24.633236059	29.537983590	500.000000000
271	1	0.0	32.212671445	3.281983590	498.329456000
272	1	0.0	29.370376069	1.640983590	498.329456000
273	1	0.0	32.212671445	3.281983590	501.670544000
274	1	0.0	29.370376069	1.640983590	501.670544000
275	2	0.0	33.160122185	1.640983590	500.000000000
276	2	0.0	30.317826810	3.281983590	500.000000000
277	1	0.0	32.212671445	6.563983590	498.329456000
278	1	0.0	29.370376069	4.922983590	498.329456000
279	1	0.0	32.212671445	6.563983590	501.670544000
280	1	0.0	29.370376069	4.922983590	501.670544000
281	2	0.0	33.160122185	4.922983590	500.000000000
282	2	0.0	30.317826810	6.563983590	500.000000000
283	1	0.0	32.212671445	9.845983590	498.329456000
284	1	0.0	29.370376069	8.204983590	498.329456000
285	1	0.0	32.212671445	9.845983590	501.670544000
286	1	0.0	29.370376069	8.204983590	501.670544000
287	2	0.0	33.160122185	8.204983590	500.000000000
288	2	0.0	30.317826810	9.845983590	500.000000000
289	1	0.0	32.212671445	13.127983590	498.329456000
290	1	0.0	29.370376069	11.486983590	498.329456000
291	1	0.0	32.212671445	13.127983590	501.670544000
292	1	0.0	29.370376069	11.486983590	501.670544000
293	2	0.0	33.160122185	11.486983590	500.000000000
294	2	0.0	30.317826810	13.127983590	500.000000000
295	1	0.0	32.212671445	16.409983590	498.329456000
296	1	0.0	29.370376069	14.768983590	498.329456000
297	1	0.0	32.212671445	16.409983590	501.670544000
298	1	0.0	29.370376069	14.768983590	501.670544000
299	2	0.0	33.160122185	14.768983590	500.000000000
300	2	0.0	30.317826810	16.409983590	500.000000000
301	1	0.0	32.212671445	19.691983590	498.329456000
302	1	0.0	29.370376069	18.050983590	498.329456000
303	1	0.0	32.212671445	19.691983590	501.670544000
304	1	0.0	29.370376069	18.050983590	501.670544000
305	2	0.0	33.160122185	18.050983590	500.000000000
306	2	0.0	30.317826810	19.691983590	500.000000000
307	1	0.0	32.212671445	22.973983590	498.329456000
308	1	0.0	29.370376069	21.332983590	498.329456000
309	1	0.0	32.212671445	22.973983590	501.670544000
310	1	0.0	29.370376069	21.332983590	501.670544000
311	2	0.0	33.160122185	21.332983590	500.000000000
312	2	0.0	30.317826810	22.973983590	500.000000000
313	1	0.0	32.212671445	26.255983590	498.329456000
314	1	0.0	29.370376069	24.614983590	498.329456000
315	1	0.0	32.212671445	26.255983590	501.670544000
316	1	0.0	29.370376069	24.614983590	501.670544000
317	2	0.0	33.160122185	24.614983590	500.000000000
318	2	0.0	30.317826810	26.255983590	500.000000000
319	1	0.0	32.212671445	29.537983590	498.329456000
320	1	0.0	29.370376069	27.896983590	498.329456000
321	1	0.0	32.212671445	29.537983590	501.670544000
322	1	0.0	29.370376069	27.896983590	501.670544000
323	2	0.0	33.160122185	27.896983590	500.000000000
324	2	0.0	30.317826810	29.537983590	500.000000000
325	1	0.0	37.897262195	3.281983590	498.329456000
326	1	0.0	35.054966820	1.640983590	498.329456000
327	1	0.0	37.897262195	3.281983590	501.670544000
328	1	0.0	35.054966820	1.640983590	501.670544000
329	2	0.0	38.844712935	1.640983590	500.000000000
330	2	0.0	36.002417560	3.281983590	500.000000000
331	1	0.0	37.897262195	6.563983590	498.329456000
332	1	0.0	35.054966820	4.922983590	498.329456000
333	1	0.0	37.897262195	6.563983590	501.670544000
334	1	0.0	35.054966820	4.922983590	501.670544000
335	2	0.0	38.844712935	4.922983590	500.000000000
336	2	0.0	36.002417560	6.563983590	500.000000000
337	1	0.0	37.897262195	9.845983590	498.329456000
338	1	0.0	35.054966820	8.204983590	498.329456000
339	1	0.0	37.897262195	9.845983590	501.670544000
340	1	0.0	35.054966820	8.204983590	501.670544000
341	2	0.0	38.844712935	8.204983590	500.000000000
342	2	0.0	36.002417560	9.845983590	500.000000000
343	1	0.0	37.897262195	13.127983590	498.329456000
344	1	0.0	35.054966820	11.486983590	498.329456000
345	1	0.0	37.897262195	13.127983590	501.670544000
346	1	0.0	35.054966820	11.486983590	501.670544000
347	2	0.0	38.844712935	11.486983590	500.000000000
348	2	0.0	36.002417560	13.127983590	500.000000000
349	1	0.0	37.897262195	16.409983590	498.329456000
350	1	0.0	35.054966820	14.768983590	498.329456000
351	1	0.0	37.897262195	16.409983590	501.670544000
352	1	0.0	35.054966820	14.768983590	501.670544000
353	2	0.0	38.844712935	14.768983590	500.000000000
354	2	0.0	36.002417560	16.409983590	500.000000000
355	1	0.0	37.897262195	19.691983590	498.329456000
356	1	0.0	35.054966820	18.050983590	498.329456000
357	1	0.0	37.897262195	19.691983590	501.670544000
358	1	0.0	35.054966820	18.050983590	501.670544000
359	2	0.0	38.844712935	18.050983590	500.000000000
360	2	0.0	36.002417560	19.691983590	500.000000000
361	1	0.0	37.897262195	22.973983590	498.329456000
362	1	0.0	35.054966820	21.332983590	498.329456000
363	1	0.0	37.897262195	22.973983590	501.670544000
364	1	0.0	35.054966820	21.332983590	501.670544000
365	2	0.0	38.844712935	21.332983590	500.000000000
366	2	0.0	36.002417560	22.973983590	500.000000000
367	1	0.0	37.897262195	26.255983590	498.329456000
368	1	0.0	35.054966820	24.614983590	498.329456000
369	1	0.0	37.897262195	26.255983590	501.670544000
370	1	0.0	35.054966820	24.614983590	501.670544000
371	2	0.0	38.844712935	24.614983590	500.000000000
372	2	0.0	36.002417560	26.255983590	500.000000000
373	1	0.0	37.897262195	29.537983590	498.329456000
374	1	0.0	35.054966820	27.896983590	498.329456000
375	1	0.0	37.897262195	29.537983590	501.670544000
376	1	0.0	35.054966820	27.896983590	501.670544000
377	2	0.0	38.844712935	27.896983590	500.000000000
378	2	0.0	36.002417560	29.537983590	500.000000000
379	1	0.0	43.581852945	3.281983590	498.329456000
380	1	0.0	40.739557570	1.640983590	498.329456000
381	1	0.0	43.581852945	3.281983590	501.670544000
382	1	0.0	40.739557570	1.640983590	501.670544000
383	2	0.0	44.529303686	1.640983590	500.000000000
384	2	0.0	41.687008311	3.281983590	500.000000000
385	1	0.0	43.581852945	6.563983590	498.329456000
386	1	0.0	40.739557570	4.922983590	498.329456000
387	1	0.0	43.581852945	6.563983590	501.670544000
388	1	0.0	40.739557570	4.922983590	501.670544000
389	2	0.0	44.529303686	4.922983590	500.000000000
390	2	0.0	41.687008311	6.563983590	500.000000000
391	1	0.0	43.581852945	9.845983590	498.329456000
392	1	0.0	40.739557570	8.204983590	498.329456000
393	1	0.0	43.581852945	9.845983590	501.670544000
394	1	0.0	40.739557570	8.204983590	501.670544000
395	2	0.0	44.529303686	8.204983590	500.000000000
396	2	0.0	41.687008311	9.845983590	500.000000000
397	1	0.0	43.581852945	13.127983590	498.329456000
398	1	0.0	40.739557570	11.486983590	498.329456000
399	1	0.0	43.581852945	13.127983590	501.670544000
400	1	0.0	40.739557570	11.486983590	501.670544000
401	2	0.0	44.529303686	11.486983590	500.000000000
402	2	0.0	41.687008311	13.127983590	500.000000000
403	1	0.0	43.581852945	16.409983590	498.329456000
404	1	0.0	40.739557570	14.768983590	498.329456000
405	1	0.0	43.581852945	16.409983590	501.670544000
406	1	0.0	40.739557570	14.768983590	501.670544000
407	2	0.0	44.529303686	14.768983590	500.000000000
408	2	0.0	41.687008311	16.409983590	500.000000000
409	1	0.0	43.581852945	19.691983590	498.329456000
410	1	0.0	40.739557570	18.050983590	498.329456000
411	1	0.0	43.581852945	19.691983590	501.670544000
412	1	0.0	40.739557570	18.050983590	501.670544000
413	2	0.0	44.529303686	18.050983590	500.000000000
414	2	0.0	41.687008311	19.691983590	500.000000000
415	1	0.0	43.581852945	22.973983590	498.329456000
416	1	0.0	40.739557570	21.332983590	498.329456000
417	1	0.0	43.581852945	22.973983590	501.670544000
418	1	0.0	40.739557570	21.332983590	501.670544000
419	2	0.0	44.529303686	21.332983590	500.000000000
420	2	0.0	41.687008311	22.973983590	500.000000000
421	1	0.0	43.581852945	26.255983590	498.329456000
422	1	0.0	40.739557570	24.614983590	498.329456000
423	1	0.0	43.581852945	26.255983590	501.670544000
424	1	0.0	40.739557570	24.614983590	501.670544000
425	2	0.0	44.529303686	24.614983590	500.000000000
426	2	0.0	41.687008311	26.255983590	500.000000000
427	1	0.0	43.581852945	29.537983590	498.329456000
428	1	0.0	40.739557570	27.896983590	498.329456000
429	1	0.0	43.581852945	29.537983590	501.670544000
430	1	0.0	40.739557570	27.896983590	501.670544000
431	2	0.0	44.529303686	27.896983590	500.000000000
432	2	0.0	41.687008311	29.537983590	500.000000000
433	1	0.0	49.266443696	3.281983590	498.329456000
434	1	0.0	46.424148321	1.640983590	498.329456000
435	1	0.0	49.266443696	3.281983590	501.670544000
436	1	0.0	46.424148321	1.640983590	501.670544000
437	2	0.0	50.213894436	1.640983590	500.000000000
438	2	0.0	47.371599061	3.281983590	500.000000000
439	1	0.0	49.266443696	6.563983590	498.329456000
440	1	0.0	46.424148321	4.922983590	498.329456000
441	1	0.0	49.266443696	6.563983590	501.670544000
442	1	0.0	46.424148321	4.922983590	501.670544000
443	2	0.0	50.213894436	4.922983590	500.000000000
444	2	0.0	47.371599061	6.563983590	500.000000000
445	1	0.0	49.266443696	9.845983590	498.329456000
446	1	0.0	46.424148321	8.204983590	498.329456000
447	1	0.0	49.266443696	9.845983590	501.670544000
448	1	0.0	46.424148321	8.204983590	501.670544000
449	2	0.0	50.213894436	8.204983590	500.000000000
450	2	0.0	47.371599061	9.845983590	500.000000000
451	1	0.0	49.266443696	13.127983590	498.329456000
452	1	0.0	46.424148321	11.486983590	498.329456000
453	1	0.0	49.266443696	13.127983590	501.670544000
454	1	0.0	46.424148321	11.486983590	501.670544000
455	2	0.0	50.213894436	11.486983590	500.000000000
456	2	0.0	47.371599061	13.127983590	500.000000000
457	1	0.0	49.266443696	16.409983590	498.329456000
458	1	0.0	46.424148321	14.768983590	498.329456000
459	1	0.0	49.266443696	16.409983590	501.670544000
460	1	0.0	46.424148321	14.768983590	501.670544000
461	2	0.0	50.213894436	14.768983590	500.000000000
462	2	0.0	47.371599061	16.409983590	500.000000000
463	1	0.0	49.266443696	19.691983590	498.329456000
464	1	0.0	46.424148321	18.050983590	498.329456000
465	1	0.0	49.266443696	19.691983590	501.670544000
466	1	0.0	46.424148321	18.050983590	501.670544000
467	2	0.0	50.213894436	18.050983590	500.000000000
468	2	0.0	47.371599061	19.691983590	500.000000000
469	1	0.0	49.266443696	22.973983590	498.329456000
470	1	0.0	46.424148321	21.332983590	498.329456000
471	1	0.0	49.266443696	22.973983590	501.670544000
472	1	0.0	46.424148321	21.332983590	501.670544000
473	2	0.0	50.213894436	21.332983590	500.000000000
474	2	0.0	47.371599061	22.973983590	500.000000000
475	1	0.0	49.266443696	26.255983590	498.329456000
476	1	0.0	46.424148321	24.614983590	498.329456000
477	1	0.0	49.266443696	26.255983590	501.670544000
478	1	0.0	46.424148321	24.614983590	501.670544000
479	2	0.0	50.213894436	24.614983590	500.000000000
480	2	0.0	47.371599061	26.255983590	500.000000000
481	1	0.0	49.266443696	29.537983590	498.329456000
482	1	0.0	46.424148321	27.896983590	498.329456000
483	1	0.0	49.266443696	29.537983590	501.670544000
484	1	0.0	46.424148321	27.896983590	501.670544000
485	2	0.0	50.213894436	27.896983590	500.000000000
486	2	0.0	47.371599061	29.537983590	500.000000000
487	1	0.0	54.951034446	3.281983590	498.329456000
488	1	0.0	52.108739071	1.640983590	498.329456000
489	1	0.0	54.951034446	3.281983590	501.670544000
490	1	0.0	52.108739071	1.640983590	501.670544000
491	2	0.0	55.898485187	1.640983590	500.000000000
492	2	0.0	53.056189811	3.281983590	500.000000000
493	1	0.0	54.951034446	6.563983590	498.329456000
494	1	0.0	52.108739071	4.922983590	498.329456000
495	1	0.0	54.951034446	6.563983590	501.670544000
496	1	0.0	52.108739071	4.922983590	501.670544000
497	2	0.0	55.898485187	4.922983590	500.000000000
498	2	0.0	53.056189811	6.563983590	500.000000000
499	1	0.0	54.951034446	9.845983590	498.329456000
500	1	0.0	52.108739071	8.204983590	498.329456000
501	1	0.0	54.951034446	9.845983590	501.670544000
502	1	0.0	52.108739071	8.204983590	501.670544000
503	2	0.0	55.898485187	8.204983590	500.000000000
504	2	0.0	53.056189811	9.845983590	500.000000000
505	1	0.0	54.951034446	13.127983590	498.329456000
506	1	0.0	52.108739071	11.486983590	498.329456000
507	1	0.0	54.951034446	13.127983590	501.670544000
508	1	0.0	52.108739071	11.486983590	501.670544000
509	2	0.0	55.898485187	11.486983590	500.000000000
510	2	0.0	53.056189811	13.127983590	500.000000000
511	1	0.0	54.951034446	16.409983590	498.329456000
512	1	0.0	52.108739071	14.768983590	498.329456000
513	1	0.0	54.951034446	16.409983590	501.670544000
514	1	0.0	52.108739071	14.768983590	501.670544000
515	2	0.0	55.898485187	14.768983590	500.000000000
516	2	0.0	53.056189811	16.409983590	500.000000000
517	1	0.0	54.951034446	19.691983590	498.329456000
518	1	0.0	52.108739071	18.050983590	498.329456000
519	1	0.0	54.951034446	19.691983590	501.670544000
520	1	0.0	52.108739071	18.050983590	501.670544000
521	2	0.0	55.898485187	18.050983590	500.000000000
522	2	0.0	53.056189811	19.691983590	500.000000000
523	1	0.0	54.951034446	22.973983590	498.329456000
524	1	0.0	52.108739071	21.332983590	498.329456000
525	1	0.0	54.951034446	22.973983590	501.670544000
526	1	0.0	52.108739071	21.332983590	501.670544000
527	2	0.0	55.898485187	21.332983590	500.000000000
528	2	0.0	53.056189811	22.973983590	500.000000000
529	1	0.0	54.951034446	26.255983590	498.329456000
530	1	0.0	52.108739071	24.614983590	498.329456000
531	1	0.0	54.951034446	26.255983590	501.670544000
532	1	0.0	52.108739071	24.614983590	501.670544000
533	2	0.0	55.898485187	24.614983590	500.000000000
534	2	0.0	53.056189811	26.255983590	500.000000000
535	1	0.0	54.951034446	29.537983590	498.329456000
536	1	0.0	52.108739071	27.896983590	498.329456000
537	1	0.0	54.951034446	29.537983590	501.670544000
538	1	0.0	52.108739071	27.896983590	501.670544000
539	2	0.0	55.898485187	27.896983590	500.000000000
540	2	0.0	53.056189811	29.537983590	500.000000000
541	2	0.0	114.639294171	24.614983590	500.000000000
542	2	0.0	114.639294171	21.332983590	500.000000000
543	2	0.0	114.639294171	18.050983590	500.000000000
544	1	0.0	57.793329822	24.614983590	498.329456000
545	1	0.0	57.793329822	24.614983590	501.670544000
546	1	0.0	57.793329822	21.332983590	498.329456000
547	1	0.0	57.793329822	21.332983590	501.670544000
548	1	0.0	57.793329822	18.050983590	498.329456000
549	1	0.0	57.793329822	18.050983590	501.670544000
550	1	0.0	110.849548056	4.922983590	498.329456000
551	1	0.0	113.691843431	3.281983590	498.329456000
552	1	0.0	110.849548056	4.922983590	501.670544000
553	1	0.0	113.691843431	3.281983590	501.670544000
554	2	0.0	109.902097315	3.281983590	500.000000000
555	2	0.0	112.744392691	4.922983590	500.000000000
556	1	0.0	110.849548056	8.204983590	498.329456000
557	1	0.0	113.691843431	6.563983590	498.329456000
558	1	0.0	110.849548056	8.204983590	501.670544000
559	1	0.0	113.691843431	6.563983590	501.670544000
560	2	0.0	109.902097315	6.563983590	500.000000000
561	2	0.0	112.744392691	8.204983590	500.000000000
562	1	0.0	110.849548056	11.486983590	498.329456000
563	1	0.0	113.691843431	9.845983590	498.329456000
564	1	0.0	110.849548056	11.486983590	501.670544000
565	1	0.0	113.691843431	9.845983590	501.670544000
566	2	0.0	109.902097315	9.845983590	500.000000000
567	2	0.0	112.744392691	11.486983590	500.000000000
568	1	0.0	110.849548056	14.768983590	498.329456000
569	1	0.0	113.691843431	13.127983590	498.329456000
570	1	0.0	110.849548056	14.768983590	501.670544000
571	1	0.0	113.691843431	13.127983590	501.670544000
572	2	0.0	109.902097315	13.127983590	500.000000000
573	2	0.0	112.744392691	14.768983590	500.000000000
574	1	0.0	110.849548056	18.050983590	498.329456000
575	1	0.0	113.691843431	16.409983590	498.329456000
576	1	0.0	110.849548056	18.050983590	501.670544000
577	1	0.0	113.691843431	16.409983590	501.670544000
578	2	0.0	109.902097315	16.409983590	500.000000000
579	2	0.0	112.744392691	18.050983590	500.000000000
580	1	0.0	110.849548056	21.332983590	498.329456000
581	1	0.0	113.691843431	19.691983590	498.329456000
582	1	0.0	110.849548056	21.332983590	501.670544000
583	1	0.0	113.691843431	19.691983590	501.670544000
584	2	0.0	109.902097315	19.691983590	500.000000000
585	2	0.0	112.744392691	21.332983590	500.000000000
586	1	0.0	110.849548056	24.614983590	498.329456000
587	1	0.0	113.691843431	22.973983590	498.329456000
588	1	0.0	110.849548056	24.614983590	501.670544000
589	1	0.0	113.691843431	22.973983590	501.670544000
590	2	0.0	109.902097315	22.973983590	500.000000000