# LAMMPS data file written by python_NSAKIB
1696 atoms
1 atom types
-200.0 200.0 xlo xhi
-200.0 200.0 ylo yhi
0.0 10.0 zlo zhi

Mass

1  12.0 # C

Atoms  # atomic

12	1	-1.095939149145111	-166.713416847963	5
13	1	-1.5710007916228057	-165.40332897947297	5
14	1	-0.714863511518925	-164.18382585955996	5
15	1	-4.307959977738032	-157.40439328982634	5
16	1	-5.475924131100107	-158.1735320385301	5
17	1	-6.8199112091592555	-157.99008088624197	5
18	1	-5.068297169047184	-159.51098233598248	5
19	1	-7.2989375198603454	-156.67085392909533	5
20	1	-3.7165626132001415	-159.5899777681419	5
21	1	-3.2475301054629373	-158.3190697777481	5
22	1	-4.942515689214835	-155.12381313715005	5
23	1	-6.419757790698749	-155.43069963825184	5
24	1	-3.9348388236165737	-156.09904266015604	5
25	1	-45.175840529983574	-147.89601857811965	5
26	1	-44.49185743540989	-149.22160248796325	5
27	1	-43.108758856236385	-149.4224115625248	5
28	1	-42.341213848645396	-148.31176942626212	5
29	1	-40.966430097728285	-148.5620290801756	5
30	1	-36.63475532035295	-150.65961379898218	5
31	1	-35.99692889246575	-151.97407692505098	5
32	1	-36.09044249776602	-149.27329752450876	5
33	1	-32.51518759850111	-149.26429908602393	5
34	1	-31.65272867258701	-150.29761732304837	5
35	1	-32.399523027038036	-151.42908601528632	5
36	1	-33.76917243262121	-151.13581508997453	5
37	1	-33.81067711064211	-149.75601168504716	5
38	1	-34.61447722711732	-152.1938749333637	5
39	1	-34.76921341409671	-148.8200758814513	5
40	1	-24.237281047193143	-148.42347734194053	5
41	1	-23.512407964843813	-149.7837843245414	5
42	1	-22.110089029649743	-149.9929819259434	5
43	1	-19.333835287877733	-147.91612112739526	5
44	1	-19.93800286796247	-149.13198691696977	5
45	1	-21.329841542922193	-148.87563215643405	5
46	1	-17.755306368914574	-150.20254163993476	5
47	1	-17.212587411513432	-148.84476872089547	5
48	1	-15.738265820797103	-151.7524412377926	5
49	1	-17.11499949340997	-151.50491487706077	5
50	1	-15.908063731247744	-148.39671803031115	5
51	1	-14.897333711724857	-150.70082616700014	5
52	1	-14.957286798893412	-149.3287615150161	5
53	1	-13.532347380378534	-150.99539752741202	5
54	1	-13.674145689438223	-148.8319157586998	5
55	1	-12.810967257011145	-149.8580824318383	5
57	1	-78.40614373443219	-144.65956889158568	5
58	1	-79.77808376915968	-144.4606611593272	5
59	1	-77.6227275088414	-143.56596358179905	5
60	1	-76.25456156883727	-143.8179319048419	5
61	1	-69.92292916497827	-144.54568607573927	5
62	1	-69.28017936980253	-145.87809475451266	5
63	1	-67.8948879051249	-146.07473907022828	5
64	1	-65.6937983247939	-145.27081057238843	5
65	1	-67.06997429702596	-144.99361947528146	5
66	1	-64.95533223689847	-144.12842110853833	5
67	1	-56.62683789760689	-144.11777048170356	5
68	1	-59.46951143882233	-143.67241076807875	5
69	1	-57.4534579306581	-145.21268287197043	5
70	1	-58.83951792215901	-145.0254810869142	5
71	1	-55.24891897213543	-144.4012835309459	5
72	1	-52.60755256653439	-144.4706381575923	5
73	1	-49.49461389401037	-145.96505379401472	5
74	1	-49.11233191734637	-144.66051015718114	5
75	1	-50.84805318179975	-145.9504494452616	5
76	1	-51.29047772915019	-144.64514053181793	5
77	1	-44.80556491305797	-146.44757351330745	5
78	1	-43.50307202529717	-145.98852738802043	5
79	1	-42.53156259025921	-146.92496498249608	5
80	1	-41.25381698041564	-146.38464434609247	5
81	1	-40.33564271106638	-147.37325326592824	5
82	1	-23.86200696955712	-146.95974700198468	5
83	1	-22.534776371937095	-146.52090137386102	5
84	1	-21.550643388023808	-147.47144393548615	5
85	1	-20.26158213164394	-146.9227536346935	5
86	1	-115.152715788808	-139.65266314676592	5
87	1	-113.78040021013238	-139.85198138492746	5
88	1	-105.27319974299851	-139.74106123312586	5
89	1	-104.625485010423	-141.06550116970027	5
90	1	-103.23761557792656	-141.2596352567955	5
91	1	-102.4036592035024	-140.18496099569143	5
92	1	-100.28290072015162	-139.31959378259387	5
93	1	-101.02548822373709	-140.46088491090438	5
94	1	-94.11961684348084	-140.1808103019632	5
95	1	-92.72903703707608	-140.3671974372629	5
96	1	-91.8953821063399	-139.2877486185073	5
97	1	-90.51527780178289	-139.56111760398397	5
98	1	-83.97581661426182	-142.17117965250026	5
99	1	-83.34839733514978	-139.99213931873038	5
100	1	-86.29725783702926	-139.38193395981446	5
101	1	-85.77799892109415	-140.68762542619294	5
102	1	-84.43732610700006	-140.8525233298507	5
103	1	-80.06517807204524	-141.7286917464342	5
104	1	-78.76827410416101	-141.27341426014917	5
105	1	-80.44048270920928	-143.15840172892243	5
106	1	-82.606586948503	-142.1925267256459	5
107	1	-82.2400602592915	-140.8716141288657	5
108	1	-76.50571945355037	-141.66027914596762	5
109	1	-77.78584048665172	-142.1888982259256	5
110	1	-75.585446176629	-142.65046708842965	5
111	1	-68.11185825841653	-142.66602066512638	5
112	1	-65.83590544491847	-143.10232660428588	5
113	1	-67.13810556637894	-143.6023503188169	5
114	1	-69.44256823491055	-143.11313624507434	5
115	1	-57.64485720299911	-141.7783769749118	5
116	1	-58.9868080953608	-142.22878962421717	5
117	1	-56.66014450016151	-142.714274502302	5
118	1	-55.342402432975504	-142.22130360072413	5
119	1	-54.46915517278194	-143.25634495198787	5
120	1	-53.10315646863753	-143.18375561720168	5
121	1	-52.4901186294381	-141.89351472598793	5
122	1	-51.08719149090648	-141.55838654586788	5
123	1	-50.01122765963604	-142.4650388916438	5
124	1	-50.21751423263188	-143.7994946800498	5
125	1	-156.91877151234803	-135.43444348854194	5
126	1	-153.31012899258897	-134.804034847251	5
127	1	-155.5226550913387	-135.62659659600766	5
128	1	-148.45158937760627	-135.85405925197423	5
129	1	-144.87626686938856	-135.2563510667922	5
130	1	-146.2486387656935	-134.97946652243488	5
131	1	-147.07354680688732	-136.053765989224	5
132	1	-129.51068640193031	-135.26363437269393	5
133	1	-128.12168626361878	-135.4861114365331	5
134	1	-125.86275560982274	-134.74385886780766	5
135	1	-117.59653147607474	-136.07558996821632	5
136	1	-118.69963762361289	-135.1939576319673	5
137	1	-117.97466685963862	-137.38970054669863	5
138	1	-121.13460114504898	-135.88319908705347	5
139	1	-119.7956837220282	-136.0465116886178	5
140	1	-119.34204262737208	-137.36377331133085	5
141	1	-115.42172820319784	-136.93495180395195	5
142	1	-115.81288430186954	-138.35681379732745	5
143	1	-112.98741598477542	-138.76524033323406	5
144	1	-113.13920354947206	-137.39033510167027	5
145	1	-114.12416700236577	-136.47995695466923	5
146	1	-111.85957883958169	-136.86256516170795	5
147	1	-110.94136037387862	-137.854653523178	5
148	1	-111.6183152710172	-139.01914215650922	5
149	1	-104.78121930231735	-138.31505665690634	5
150	1	-103.44886767748724	-137.8667725665131	5
151	1	-101.16733847990412	-138.2950488752513	5
152	1	-102.469576555068	-138.79669626759502	5
153	1	-94.7779932909344	-138.84624443088308	5
154	1	-94.30098559001316	-137.4146217370408	5
155	1	-91.96713939297103	-137.89531431752218	5
156	1	-92.96040874947973	-136.96976979020909	5
157	1	-89.76153126016251	-138.4192121965388	5
158	1	-90.65651187512589	-137.39463255601902	5
159	1	-84.18226522255955	-137.70817995487124	5
160	1	-85.60788490589907	-138.05719878051792	5
161	1	-83.12179208090883	-138.6423268236644	5
162	1	-190.92469004193904	-130.8328216011777	5
163	1	-183.8814276723154	-131.09175632072146	5
164	1	-182.50989930243855	-131.2879238119956	5
165	1	-180.3177958873604	-130.49252741335445	5
166	1	-157.10083949325977	-132.68036990164822	5
167	1	-157.5892827536035	-134.10874464333125	5
168	1	-155.77666001595404	-132.21871877085508	5
169	1	-154.69608423334395	-134.54167328603413	5
170	1	-154.792419195071	-133.1486503237262	5
171	1	-153.49642531162542	-132.63249544621448	5
172	1	-152.59192273291896	-133.6485596680475	5
173	1	-148.61142048028998	-133.1176434016038	5
174	1	-149.08169887607158	-134.53711731558846	5
175	1	-147.29064616776398	-132.66686715083029	5
176	1	-146.31794431292138	-133.5952087891141	5
177	1	-144.142917638362	-134.11497016330182	5
178	1	-145.02263744087293	-133.09199772189905	5
179	1	-135.9480224144772	-133.56259595512844	5
180	1	-134.95710605824507	-130.29861513740352	5
181	1	-136.69098307490842	-132.20680859304022	5
182	1	-136.29622017569275	-130.74241042246115	5
183	1	-133.94881095649524	-131.23540071183658	5
184	1	-134.5333136602532	-133.75842817320913	5
185	1	-133.73400392710323	-132.64409855481605	5
186	1	-132.64909684300542	-130.68299403471775	5
187	1	-131.7092962756144	-131.67767892702088	5
188	1	-132.33317077783113	-132.89060358019685	5
189	1	-127.23751267987238	-134.44773132423558	5
190	1	-127.25194785549353	-133.06641285508158	5
191	1	-128.22745779934957	-132.14776666840856	5
192	1	-129.55170936390255	-132.59916975403124	5
193	1	-130.14258667139276	-133.959096778235	5
194	1	-125.0797316303548	-133.6187248766018	5
195	1	-125.9481344219142	-132.5792132395208	5
196	1	-118.45602560605256	-133.85008411339166	5
197	1	-119.50839991164362	-132.91633921453555	5
198	1	-121.63924994825256	-134.57861999746973	5
199	1	-120.93074936681266	-133.26702447229022	5
200	1	-5.655245111806451	-131.98107364012014	5
201	1	-4.881421413509317	-130.83109184159397	5
202	1	-4.991060885298594	-133.1401144776807	5
203	1	-6.959359868440401	-131.6012584128474	5
204	1	-8.18681648439837	-132.12005496079738	5
205	1	-8.33339309554143	-133.49028810878656	5
206	1	-5.737050260862214	-134.32664193721035	5
207	1	-7.221259103301206	-134.45510840781498	5
208	1	-192.44399226949875	-127.9255568587552	5
209	1	-192.96958119579975	-129.31657603516584	5
210	1	-192.3142041663718	-130.62911122192358	5
211	1	-188.86776053866976	-127.86452813511612	5
212	1	-187.97613275793256	-128.8847470716109	5
213	1	-188.7047672150958	-130.03188818969753	5
214	1	-190.08560578275493	-129.76291671259338	5
215	1	-190.15659812854352	-128.3770667504642	5
216	1	-191.13253867809516	-127.45267396966264	5
217	1	-182.70371388831467	-127.89717185703698	5
218	1	-184.01788564642675	-128.3593298227295	5
219	1	-184.4918723589688	-129.77498787730852	5
220	1	-181.73974435287013	-128.8288210819048	5
221	1	-181.686780875409	-130.21341483527493	5
222	1	-180.44735120347593	-128.32698663128403	5
223	1	-179.57845699878553	-129.35511829960367	5
224	1	-174.1325482250645	-128.89085877464103	5
225	1	-173.5169559971079	-130.23959963626115	5
226	1	-172.14294411948424	-130.42828787663603	5
227	1	-171.38108190858838	-127.9345437874832	5
228	1	-171.3427497273156	-129.331336504653	5
229	1	-169.97670909571988	-129.61585244869175	5
230	1	-170.0787046536276	-127.43397749645112	5
231	1	-172.33873272289057	-126.98836110857006	5
232	1	-173.66403670200134	-127.4521166144506	5
233	1	-169.236409152316	-128.47530818466404	5
234	1	-165.9061373969075	-127.03131102881044	5
235	1	-165.35143448578214	-128.32305589599915	5
236	1	-162.7631522709789	-126.2545905660976	5
237	1	-162.96382174148434	-127.59245300420216	5
238	1	-164.02157514984378	-128.4572674813131	5
239	1	-161.84510375614977	-128.43540619454774	5
240	1	-162.19939616771552	-129.7497608670529	5
241	1	-163.5491559857672	-129.76729762140124	5
242	1	-9.887254027943158	-128.71871144306914	5
243	1	-9.117244410917518	-127.56118798956176	5
244	1	-9.79813522733523	-126.40724498626588	5
245	1	-9.065950116294722	-129.80229318846216	5
246	1	-5.697261282419282	-129.7374566749964	5
247	1	-7.803895493184948	-127.9271794757524	5
248	1	-6.569106717920763	-127.41340477719794	5
249	1	-7.8141977860017775	-129.30530479222048	5
250	1	-6.950275028146884	-130.2267262584517	5
251	1	-196.7273561584451	-125.92822940625412	5
252	1	-198.32871074603315	-121.8234288414617	5
253	1	-196.12727361070964	-123.73020509710962	5
254	1	-195.87898884678305	-122.38763058919842	5
255	1	-197.1935737361788	-124.61587852787272	5
256	1	-198.52573840681504	-124.47302819251206	5
257	1	-199.00947997591337	-123.15339620954066	5
258	1	-195.3759205286164	-125.91612247519936	5
259	1	-195.01980897514815	-124.59330618803546	5
260	1	-165.27738929103023	-125.71437794466527	5
261	1	-163.8562008075201	-125.3595043960408	5
262	1	-9.04568908770386	-125.20997210008244	5
263	1	-7.538234051554641	-125.06726409540369	5
264	1	-6.411839420553299	-126.03866294286368	5
265	1	-196.92103750788044	-121.45351258763492	5
267	1	-8.859026864235753	-113.93887542506565	5
268	1	-7.324179035255695	-113.8337698605557	5
269	1	-9.8356962508445	-111.51513206829551	5
270	1	-9.999191224000436	-112.920755368459	5
271	1	-8.570177744700565	-111.01743398978564	5
272	1	-6.5631972850269635	-112.63470847791284	5
273	1	-6.437141007401883	-110.31804157245487	5
274	1	-7.247504908864453	-111.4610979455924	5
275	1	-8.492851333997722	-109.61656716052406	5
276	1	-7.204937333441018	-109.20921328304536	5
279	1	-9.18666301978126	-87.83975328736628	5
280	1	-10.358071542927826	-87.08575561754289	5
281	1	-9.40347560430572	-89.17384341852294	5
282	1	-8.135825265285886	-86.9245341188508	5
283	1	-8.266274412480316	-89.99716114982772	5
284	1	-6.824141105493615	-89.50961369880858	5
285	1	-6.7836070983118315	-86.90112070711609	5
286	1	-6.134259355913176	-88.14982540490594	5
287	1	-8.718467825488338	-85.65791421180926	5
288	1	-10.056612938604577	-85.77707161266463	5
291	1	-9.497405642680052	-69.92449944675842	5
292	1	-10.909665295634255	-70.34756198898971	5
293	1	-20.65518087836462	-66.03465020902685	5
294	1	-17.670928241228573	-66.31822315084003	5
295	1	-18.05746701406648	-68.52271287512829	5
296	1	-18.656451542143895	-67.26903705608973	5
297	1	-19.99773272820532	-67.28487977004787	5
298	1	-16.487095914468345	-67.0447337707793	5
299	1	-16.71897530122328	-68.37230711988826	5
300	1	-13.048998292231952	-67.45608424315262	5
301	1	-12.801403946309918	-66.12888617928931	5
302	1	-11.452911778939855	-66.00892660381808	5
303	1	-9.5228784141362	-67.31406216628962	5
304	1	-10.864533471968826	-67.27185205248932	5
305	1	-8.877430404723217	-68.57231591277188	5
306	1	-12.02847325743917	-69.51628969774303	5
307	1	-11.870838837399964	-68.18682109364913	5
308	1	-20.030698936759045	-64.65006917181638	5
309	1	-18.6226849199724	-64.15513049190366	5
310	1	-17.50165848192787	-64.98463497872767	5
312	1	-19.399203969695588	-50.60566430986268	5
313	1	-18.258948352930616	-51.590250323428315	5
314	1	-17.97207083722571	-48.69476080900137	5
315	1	-19.23391381794456	-49.204821352764576	5
316	1	-15.833467486487663	-47.95920463478197	5
317	1	-16.72435302360935	-51.44653135653165	5
318	1	-15.945827001114653	-50.25971072668077	5
319	1	-16.638633286374635	-49.09810580939256	5
320	1	-17.899849783429488	-47.29245101869443	5
321	1	-16.61679760957524	-46.86679445401287	5
322	1	200.07298332139464	-28.3530563530988	5
324	1	200.73149997449576	-27.109914401231443	5
325	1	200.02815617940936	-25.95523127647766	5
326	1	-13.276403388634224	-26.62150205939706	5
327	1	-13.961885740380575	-27.970493532617297	5
328	1	-16.32892651664547	-26.26523597069446	5
329	1	-16.54190931457191	-27.59811308457539	5
330	1	-15.40751992744289	-28.428883491503115	5
331	1	200.7605956859334	-24.760498289180116	5
332	1	-17.494682703035384	-25.502378249795377	5
333	1	-13.92111754685077	-25.370663000980905	5
334	1	-15.272033676348173	-25.36816027789034	5
335	1	-15.843771315112209	-24.095357874420554	5
336	1	-17.184981383724384	-24.1940849344408	5
337	1	-191.86396216351247	-17.47987106557182	5
338	1	-194.90114334964588	-18.735258095158706	5
339	1	-191.8721367083879	-18.83179136201652	5
340	1	-194.14505147096105	-19.929201277857317	5
341	1	-192.80454154695124	-19.836236737040796	5
342	1	-192.12811023088648	-21.05432823811744	5
343	1	-190.80055698646584	-20.8275977505358	5
344	1	-190.62972360431056	-19.489205320080007	5
345	1	-185.514634895332	-17.790770005104267	5
346	1	-184.33401959168495	-18.738169520579216	5
347	1	-182.88394570602043	-18.530966106482552	5
348	1	-193.08510645612927	-16.755740000005318	5
349	1	-194.4482982183013	-17.320900876189313	5
350	1	-184.41197406820712	-15.768476246109715	5
351	1	-183.08151070363513	-16.161947088877657	5
352	1	-185.6038974207557	-16.382900822866095	5
353	1	-182.29597570136443	-17.268261751382937	5
354	1	-184.49388237382533	-14.386460817461945	5
355	1	-183.24729527141156	-13.894285705541478	5
356	1	-182.39667288421575	-14.943596647656328	5
357	1	-174.40576642127223	-4.687478379458712	5
358	1	-174.96247535884189	-5.911448751692801	5
359	1	-176.3519474085723	-5.967073087050874	5
360	1	-177.27909775808442	-4.791592354810437	5
361	1	-169.91313854756334	-6.333422794913175	5
362	1	-170.8856781651985	-5.415717010568059	5
363	1	-173.02712293829532	-4.725058335188937	5
364	1	-167.64683885817715	-6.623595399338535	5
365	1	-166.34392772518464	-6.155616941213728	5
366	1	-166.03550148547026	-4.72525027839769	5
367	1	-168.65883046590642	-5.71101249493126	5
369	1	-174.73279407303193	-3.349520543449122	5
370	1	-175.86403793563662	-2.6186045596644294	5
371	1	-177.09326659583783	-3.3045086666135366	5
372	1	-173.5387389625534	-2.625020265972106	5
373	1	-172.4926324988227	-3.478425190262123	5
374	1	-170.33354453159453	-4.188593080863979	5
375	1	-165.52874545498597	-0.09946998485124307	5
376	1	-166.76652270217485	-0.7858689088336995	5
377	1	-166.92307344563653	-3.4189188527567818	5
378	1	-166.32412945655153	-2.180577429502112	5
379	1	-168.3083340836738	-3.149567647374905	5
380	1	-169.14266078785204	-0.3380011857897937	5
381	1	-169.36913208454396	-1.7292575582733274	5
382	1	-168.97324722766294	-4.321637379367244	5
383	1	-164.93577346710424	-2.244763589732784	5
384	1	-164.47725586516464	-0.967733125968577	5
387	1	-152.6561252373293	3.0256883300479283	5
388	1	-153.80288713555197	3.7576044668487745	5
389	1	-155.04205875990942	3.102547730331745	5
390	1	-154.22258092255257	0.4141955681094263	5
391	1	-155.18730205926616	1.601380002652067	5
392	1	-152.80709811922458	0.4759150821068355	5
393	1	-152.22696298270725	1.7017116695386585	5
394	1	-151.4687019626871	3.770505091038323	5
395	1	-150.8263208074445	1.7017679849509215	5
396	1	-150.36133739936034	2.978535389304567	5
397	1	-6.417153256837295	98.7474336715343	5
398	1	-6.988119810748101	99.97573009187064	5
399	1	-148.3921324122016	7.206704488242102	5
400	1	-148.41832912892067	8.537158318491365	5
401	1	-145.74859155058184	6.888819042691388	5
402	1	-145.18784801327791	8.194408331095394	5
403	1	-147.16698616209788	6.487859952513064	5
404	1	-150.02232347903922	11.702451616997774	5
405	1	-149.13749119078628	10.692207278413326	5
406	1	-147.790841638705	10.652070609661866	5
407	1	-149.5225133045991	9.355208388073128	5
408	1	-149.55653812056482	13.029711166916792	5
409	1	-146.00695336391777	9.263588232762933	5
410	1	-145.61471670119482	10.600256587585353	5
411	1	-146.851950573774	12.777203065184947	5
412	1	-146.7242701354793	11.433150879306408	5
413	1	-147.35009754408912	9.30830434590102	5
414	1	-141.76486591698236	11.789172699656342	5
415	1	-140.3148701842195	12.007711156332368	5
416	1	-142.9208634809263	12.791359658843724	5
417	1	-26.511206198273378	10.67072647470557	5
418	1	-23.08473167657569	10.946318109426864	5
419	1	-25.37574658187128	9.665748151561568	5
420	1	-23.850929131525007	9.761300096359577	5
421	1	-26.349530581808235	12.06757999765044	5
422	1	-23.76744099052912	12.112925461821192	5
423	1	-25.0859691735417	12.554052731230916	5
424	1	-148.13807044388494	13.470646964984011	5
425	1	-141.91132548428223	16.19858035567711	5
426	1	-141.8375909704938	14.816922515657197	5
427	1	-143.0318085631117	14.196129750353268	5
428	1	-140.50036666273058	14.409760230692775	5
429	1	-139.72482444313334	13.282802012110364	5
430	1	-140.65919441931052	16.69449574058775	5
431	1	-139.8089026562694	15.637076396770908	5
432	1	-22.954322000007835	13.245710469369175	5
433	1	-23.72134074469354	14.349185843998852	5
434	1	-25.007561532939572	13.948947844440188	5
435	1	-135.68272555056873	21.75476177073388	5
436	1	-134.7528223898252	20.56467774709655	5
437	1	-133.3568593341882	20.607578800021106	5
438	1	-131.40735852291385	21.813184212490164	5
439	1	-132.79413108509664	21.82955529867361	5
440	1	-135.53658449752675	23.23633102865141	5
441	1	-134.31334835632688	23.905741645707252	5
442	1	-133.18968958485385	23.15920647702568	5
443	1	-132.0078625832201	23.89784036854041	5
444	1	-130.94341063117014	23.074109522121656	5
446	1	-115.08437680370568	27.39113826595694	5
447	1	-116.0452701694208	28.57532146544513	5
448	1	-113.67419618074628	27.457954660780658	5
449	1	-115.89210498234854	30.079054221002057	5
450	1	-113.521939091832	30.017858658576632	5
451	1	-113.1098738309203	28.68833168298789	5
452	1	-111.712844342356	28.68636043474388	5
453	1	-111.2562669747282	29.954540561369015	5
455	1	-114.660195436056	30.7555214656169	5
456	1	-112.33846496176852	30.764933844902018	5
457	1	-101.61364853944484	34.05098645120063	5
458	1	-100.13646305142736	34.25929897480243	5
459	1	-19.18584476442473	34.7570281803788	5
460	1	-20.6035011073074	34.27852556670352	5
461	1	-101.6249351686228	38.384943610995265	5
462	1	-100.37458297980416	38.87856814507463	5
463	1	-101.57292872779138	36.99596258546162	5
464	1	-102.77637260006324	36.395117554551874	5
465	1	-102.7912062675318	34.98998907771348	5
466	1	-100.24376940719624	36.62431387291108	5
467	1	-99.5312397194817	37.826510812683225	5
468	1	-99.48761519332886	35.50511149372741	5
469	1	-22.374192378120537	38.4820274729792	5
470	1	-22.66385374101571	37.17519169883735	5
471	1	-18.516363336780586	36.11168364338323	5
472	1	-21.723087525817952	35.1031792025753	5
473	1	-19.14140767452282	37.36919328037978	5
474	1	-21.04939265584187	38.61874250014504	5
475	1	-21.500141000182357	36.42633225654734	5
476	1	-20.481418434982466	37.35408832107042	5
478	1	-31.48136267046854	43.000616689661925	5
479	1	-30.79070959835492	41.79358089373337	5
480	1	-29.448655978688866	41.89428303649994	5
481	1	-28.416158257123925	42.84117136393952	5
482	1	-28.84196476841474	40.648795768762405	5
483	1	-27.52147435839412	40.81128796365197	5
484	1	-27.24137643254575	42.1170130403537	5
485	1	-30.80121119550443	44.35508196723935	5
486	1	-29.363886992872924	44.933480619756395	5
487	1	-28.192178242709964	44.17193751693856	5
488	1	-90.01421458362147	50.20685572226761	5
489	1	-90.97598854904544	51.39396085348389	5
490	1	-88.60574228579159	50.25993299947314	5
491	1	-88.04394016857648	51.49043665034906	5
492	1	-86.64958935279608	51.482043557352526	5
493	1	-81.74123634230892	51.43753484513148	5
494	1	-79.5106427857805	50.49965463044261	5
495	1	-80.40207974609318	51.57222687118252	5
496	1	-77.13329044716664	50.066996315548614	5
497	1	-75.79455911933846	50.502445814443576	5
498	1	-78.17660098044125	50.9288821854561	5
499	1	-26.13978827820216	50.93277445096216	5
500	1	-27.62055549739805	50.422448316977736	5
501	1	-28.807129255083847	51.187548705042005	5
503	1	-90.82632900780057	52.89381606995117	5
504	1	-89.59341477049918	53.56653653761665	5
505	1	-88.45837027858724	52.821890322760986	5
506	1	-87.2714323149533	53.56541116038152	5
507	1	-86.1923971573058	52.74833323880054	5
508	1	-82.62207732990485	52.512164323299366	5
509	1	-82.37682606253124	53.893612410146815	5
510	1	-79.91349454922384	53.93140242541182	5
511	1	-81.15529888448825	54.46748341768679	5
512	1	-80.92470919917785	55.84776443923203	5
513	1	-79.55229211545105	56.15023936194907	5
514	1	-78.96164018645217	54.928910904870115	5
515	1	-79.60280455245078	52.66490740884733	5
516	1	-74.01280687723948	56.03566289131832	5
517	1	-78.28021614305078	52.2848668640014	5
518	1	-77.38268889044723	53.233073401069376	5
519	1	-77.70366481228265	54.58471722890089	5
520	1	-76.57583424545219	55.373831216331254	5
521	1	-75.5484855168024	54.38196889006523	5
522	1	-75.31896609840862	51.85711835263015	5
523	1	-76.03113580225691	53.042844282047504	5
524	1	-29.454742702203124	54.5749085721632	5
525	1	-26.146194574062477	53.45924546346527	5
526	1	-27.506709222529608	53.41432011989946	5
527	1	-28.10969081534252	54.67909076654656	5
528	1	-29.769520957361756	53.26865788185021	5
529	1	-28.59674072093599	52.52538386507396	5
530	1	-25.441589163670574	52.25491110851924	5
532	1	-79.06462859474584	57.41809803214332	5
533	1	-74.96238538520433	58.660308112632826	5
534	1	-75.07713018379769	57.20016143991541	5
535	1	-77.65226806071279	57.70177998461799	5
536	1	-76.48476630359234	56.77194815299664	5
537	1	-73.72207339664766	59.311396056498744	5
538	1	-71.38434002168157	59.34383250122652	5
539	1	-70.28804932296198	58.551676382672994	5
540	1	-72.56735301419096	58.58987430204336	5
541	1	-72.62027365773703	56.062007004614784	5
542	1	-72.09022633032454	57.28400154675518	5
543	1	-70.71389248718022	57.28230737464265	5
544	1	-61.42717181122151	64.90968667877495	5
545	1	-61.50430000360733	69.2250686981455	5
546	1	-62.63140179584373	65.82262447067198	5
547	1	-61.44017302924856	67.83687812759072	5
548	1	-62.637472504743315	67.22479255190785	5
549	1	-59.40877509056859	68.67195547092136	5
550	1	-59.95026257685004	65.11181036326707	5
551	1	-60.106474492459576	67.46473236339702	5
552	1	-59.32610674089646	66.36127686688559	5
553	1	-60.25722211650358	69.72494460188659	5
554	1	-54.3758149543349	73.36134592196622	5
555	1	-53.07529093995352	73.86246113736605	5
556	1	-52.10494649359233	72.91751304129492	5
557	1	-50.784218848000705	73.339050326853	5
558	1	-46.84400418557916	73.86404058598154	5
559	1	-44.60635762968442	73.38742106575476	5
560	1	-45.909632897248045	72.8669689600811	5
561	1	-43.61410918977905	72.45091183027635	5
562	1	-42.28891501347381	72.87976904691803	5
563	1	-35.011482375464745	70.59837089140859	5
564	1	-37.30197640778367	72.5830427141909	5
565	1	-38.386225552155715	73.48931035395275	5
566	1	-36.16310600824924	73.36306641551757	5
567	1	-34.825850083567396	73.18049299117004	5
568	1	-36.4765466291839	70.31295707332212	5
569	1	-37.5588601872212	71.24820076869868	5
570	1	-34.294012563055745	71.87750239892476	5
571	1	-60.9139825668078	78.03888525730567	5
572	1	-58.87897725101109	75.02606246614182	5
573	1	-59.784001798885235	77.2080645380481	5
574	1	-59.98366796386135	75.87642373790932	5
575	1	-58.64093162311579	77.99497231736177	5
576	1	-57.29445734535483	77.85208606856632	5
577	1	-57.476787266224584	75.3620182848586	5
578	1	-56.72732114398893	76.59641128264717	5
579	1	-52.41217929364946	76.31788430628112	5
580	1	-53.235512201381795	75.24604399429454	5
581	1	-55.301689326835046	74.36825551036283	5
582	1	-54.60734802586448	75.52247302652609	5
583	1	-50.37278340084457	74.76603978771529	5
584	1	-51.03218787447576	76.09284409140642	5
585	1	-44.03065226233553	75.88528063761183	5
586	1	-44.80674896706883	74.77878108450943	5
587	1	-46.17851543737841	75.03794115929902	5
588	1	-41.95697914055752	74.33560680412386	5
589	1	-42.64770157541734	75.68092397215479	5
590	1	-37.928001803092606	74.76362597929706	5
591	1	-36.576935776221355	74.70006023518972	5
592	1	-30.77086780241705	75.57740655298393	5
593	1	-28.851229898069775	74.57767101679993	5
594	1	-30.192151389459973	74.35423429409806	5
595	1	-30.26978559151255	77.86038744520111	5
596	1	-29.806034401644588	76.59166805334054	5
597	1	-26.946589135548525	77.64530946389843	5
598	1	-28.585911652772136	75.94463933458897	5
599	1	-27.28106644368543	76.28545239588033	5
600	1	-74.71629248940346	82.0567529186235	5
601	1	-77.04954438529879	82.2769305576161	5
602	1	-65.62732684481529	79.08703245518802	5
603	1	-65.54854644587401	80.51948442308068	5
604	1	-69.04146886504468	81.11210368198267	5
605	1	-68.59185898375014	82.36334805210736	5
606	1	-67.2388639299258	82.30986369697204	5
607	1	-67.97814241648646	80.28204018811626	5
608	1	-66.8232717904531	81.00829358235727	5
609	1	-63.187112111138035	78.82414825979768	5
610	1	-64.50410967552499	78.27442160705121	5
611	1	-62.69120108654911	80.2459830453379	5
612	1	-63.31088856201097	81.53733664361339	5
613	1	-64.68984736387053	81.67177961065795	5
614	1	-60.50279090058516	79.32567421983795	5
615	1	-59.13384590364552	79.30194536481079	5
616	1	-29.379829690645845	78.93476773884915	5
617	1	-27.907417015191143	78.79679918589437	5
618	1	-79.19036007156981	85.80321383890859	5
619	1	-79.3567881054133	82.71835656549023	5
620	1	-81.3765396816531	85.6732789049639	5
621	1	-80.23048632570689	84.88248167651274	5
622	1	-80.44169921627487	83.54540042178715	5
623	1	-77.85231726173882	85.70772621852585	5
624	1	-78.06832171440949	83.23404772738719	5
625	1	-77.34346282137626	84.45941066359588	5
626	1	-75.92151572274008	84.2929010664422	5
627	1	-75.78668131645298	82.89383672566679	5
628	1	-75.10026767167065	85.42409268443372	5
629	1	-73.42894456310454	82.62752045463384	5
630	1	-72.9865395261731	84.06603355873939	5
631	1	-73.6941842777837	85.33341384764113	5
632	1	-22.138805114364413	85.19018063969975	5
633	1	-24.063981241581462	86.18894456432524	5
634	1	-23.466561138235313	84.97776888348913	5
635	1	-20.596883472920204	86.88259907055814	5
636	1	-21.89722657055488	86.55281355288967	5
637	1	-98.44641402597752	91.33334338070388	5
638	1	-99.82607046035746	90.90962518488634	5
639	1	-87.91264949630644	90.8733229503552	5
640	1	-88.69683598130004	89.58801823542595	5
641	1	-90.08525518588227	89.10889769169275	5
642	1	-91.17992844366462	89.9738798197645	5
643	1	-90.93969244979652	91.34024327184542	5
644	1	-83.49923505725094	90.7332845064449	5
645	1	-85.79384647810348	89.90250586896732	5
646	1	-84.39284232405367	89.69982014190826	5
647	1	-86.50448608232213	88.72693304742852	5
648	1	-83.2376782808406	87.51650023304396	5
649	1	-84.28873904666293	88.33292154748283	5
650	1	-85.54744569476878	87.75202664520344	5
651	1	-82.08250637314949	90.57816871567462	5
652	1	-81.07109416302991	87.01697606514823	5
653	1	-81.95693673937359	88.04904841459528	5
654	1	-81.3678722054401	89.34365849558326	5
655	1	-79.72135551178017	87.07901746183936	5
656	1	-23.61293342022056	88.46853056100119	5
657	1	-23.113436882354755	87.2130304350642	5
658	1	-22.724924908923725	89.54380670537917	5
659	1	-20.309947393943233	88.24847996154969	5
660	1	-21.258156801293424	89.40798467225058	5
661	1	-15.143667150471334	90.9954992746973	5
662	1	-14.229849089779735	89.98924475218104	5
663	1	-10.137802337065754	91.33780812185208	5
664	1	-10.58245561546962	89.93267593414579	5
665	1	-11.926927544382917	89.53784076645128	5
666	1	-12.914068753479013	90.47132402653936	5
667	1	-5.088831570291455	98.9311101054359	5
668	1	-110.29585093999424	94.79931922580371	5
669	1	-108.987064370088	95.26060618472992	5
670	1	-106.68362859374754	94.9190994453158	5
671	1	-107.95045535318836	94.30480519086836	5
672	1	-105.59869452648414	94.08322425106188	5
673	1	-104.30835794945564	94.61910149989708	5