#LAMMPS Data File generated from .cfg file using PYTHON. Created by Nuruzzaman Sakib

1784 atoms
2 atom types

-200.0 200.0 xlo xhi
-200.0 200.0 ylo yhi
0.0 10.0 zlo zhi

Masses

1 12.011
2 12.011


Atoms  # atomic

6 2 199.97404 -35.65996000000001 5.0
32 2 130.3188 171.11736000000002 5.0
33 2 131.12824 170.02499999999998 5.0
175 2 -176.113428 130.96179999999998 5.0
176 2 -176.679512 130.29071999999996 5.0
181 2 142.82816000000003 166.164 5.0
182 2 137.79404 165.25660000000005 5.0
287 2 198.65472 -24.149479999999983 5.0
288 2 199.95820000000003 -23.819879999999984 5.0
324 2 145.46999999999997 -151.61388 5.0
360 2 160.81615999999997 -134.95484 5.0
461 2 -10.03352000000001 -128.8718 5.0
526 2 -13.488400000000013 -26.817920000000015 5.0
527 2 -13.960239999999999 -28.17428000000001 5.0
694 2 -16.181479999999993 -26.741039999999998 5.0
702 2 -153.05084 3.1185999999999865 5.0
748 2 -153.75912 3.4672800000000166 5.0
749 2 -154.91452 3.006760000000014 5.0
754 2 -154.22088 0.60251999999997 5.0
755 2 -155.25448 1.5906800000000203 5.0
762 2 99.52292 197.25191999999998 5.0
763 2 100.23843999999997 198.39436 5.0
809 2 -176.505728 128.81336 5.0
810 2 -177.986224 128.09484000000003 5.0
844 2 143.59663999999998 164.63027999999997 5.0
845 2 144.42424 164.52848 5.0
850 2 132.07884 167.66679999999997 5.0
851 2 130.67464 168.78000000000003 5.0
852 2 133.23944 168.60712 5.0
853 2 132.64596 170.22088000000002 5.0
856 2 148.89056 164.63328 5.0
857 2 147.15156000000002 164.87484 5.0
865 2 142.42395999999997 163.59840000000003 5.0
866 2 142.38092 162.89076 5.0
867 2 141.41796 166.00716 5.0
868 2 140.93608 164.77583999999996 5.0
870 2 138.7092 165.56776000000002 5.0
882 2 128.02408000000003 172.46312 5.0
938 2 181.01747999999998 -23.59075999999999 5.0
1116 2 133.33751999999998 10.512040000000013 5.0
1120 2 134.65524000000005 10.678479999999979 5.0
1122 2 148.69811999999996 2.5090800000000115 5.0
1128 2 141.88044000000002 10.781880000000001 5.0
1129 2 140.72235999999998 9.642840000000007 5.0
1130 2 141.57855999999998 8.147359999999992 5.0
1131 2 139.54852 11.978959999999972 5.0
1235 2 191.30916000000002 -28.327920000000006 5.0
1237 2 192.30740000000003 -29.26363999999998 5.0
1316 2 153.62436000000002 -141.26936 5.0
1320 2 154.92035999999996 -141.21584000000001 5.0
1322 2 155.63984 -142.31328 5.0
1344 2 154.54568 -143.74736000000001 5.0
1345 2 153.08436 -143.00292000000002 5.0
1346 2 147.95731999999998 -152.64916 5.0
1353 2 145.05367999999999 -152.74248 5.0
1423 2 168.98688000000004 -130.62732 5.0
1457 2 172.05908 -127.527 5.0
1458 2 170.71716000000004 -127.64452 5.0
1459 2 170.22503999999998 -129.2296 5.0
1460 2 169.42164000000002 -129.51731999999998 5.0
1617 2 -5.880359999999996 -132.20388 5.0
1618 2 -4.86112 -130.64339999999999 5.0
1743 2 -23.560159999999996 -147.1458 5.0
1744 2 -22.420079999999984 -146.91024 5.0
1805 2 -5.415159999999986 -133.08168 5.0
2194 2 103.79559999999998 37.56072 5.0
2230 2 -150.03228000000001 118.66859999999997 5.0
2231 2 -147.45780000000002 118.34427999999997 5.0
2238 2 -144.3168 114.45931999999999 5.0
2239 2 -143.78528 115.86284 5.0
2240 2 -139.72487999999998 114.71876000000003 5.0
2242 2 -141.6156 114.94412 5.0
2376 2 -14.369799999999998 -25.703040000000016 5.0
2377 2 -14.809120000000007 -25.66332 5.0
2378 2 -17.513800000000003 -25.62428 5.0
2395 2 -124.51496 103.8886 5.0
2398 2 -118.85212 103.54088000000002 5.0
2399 2 -119.843 103.22255999999999 5.0
2420 2 -151.41828 4.000400000000013 5.0
2423 2 -145.78904 6.995199999999983 5.0
2424 2 -145.45424 8.284600000000012 5.0
2470 2 -184.761208 -16.052519999999987 5.0
2471 2 -183.059068 -16.43804 5.0
2472 2 -182.390332 -14.822759999999988 5.0
2477 2 -185.291944 -16.408439999999985 5.0
2478 2 -185.508076 -17.656319999999994 5.0
2483 2 -193.151948 -16.88628 5.0
2563 2 -182.69588 -17.077640000000002 5.0
2611 2 -165.419248 -0.03064000000000533 5.0
2612 2 -166.912216 -0.7549599999999828 5.0
2645 2 98.13288 197.20648 5.0
2653 2 98.5546 199.82551999999998 5.0
2654 2 100.04552000000001 199.04992 5.0
2662 2 90.20695999999998 191.99968 5.0
2666 2 89.82308 190.74363999999997 5.0
2793 2 -182.695516 -128.17579999999998 5.0
2795 2 -188.888896 -127.72984 5.0
2893 2 -117.4616 -136.1012 5.0
2895 2 -118.70252 -134.13544 5.0
2896 2 -118.78488 -134.81531999999999 5.0
2993 2 149.49792000000002 165.34604000000002 5.0
3011 2 143.4996 161.89171999999996 5.0
3019 2 128.9422 170.86220000000003 5.0
3020 2 127.97431999999998 171.83763999999996 5.0
3027 2 136.81100000000004 165.84915999999998 5.0
3028 2 135.35772000000003 165.11787999999996 5.0
3029 2 134.24532 166.23388 5.0
3030 2 133.08819999999997 165.92164000000002 5.0
3031 2 132.02888000000002 166.86823999999996 5.0
3036 2 137.17188 167.99068 5.0
3037 2 136.62915999999996 167.33968 5.0
3038 2 134.34560000000005 168.37516 5.0
3039 2 134.75495999999998 167.53464000000002 5.0
3054 2 138.46472 167.98863999999998 5.0
3055 2 139.23684000000003 166.91340000000002 5.0
3079 2 129.20344 173.48843999999997 5.0
3082 2 128.57636000000002 175.03116 5.0
3084 2 130.805 172.26908000000003 5.0
3085 2 130.26436 173.30032 5.0
3153 2 95.07484 184.32095999999996 5.0
3161 2 95.0892 185.12032 5.0
3162 2 93.76495999999997 186.18383999999998 5.0
3178 2 101.65872000000002 182.24019999999996 5.0
3202 2 175.43948 -21.372600000000006 5.0
3203 2 174.14551999999998 -21.76527999999999 5.0
3209 2 180.04732 -22.700400000000002 5.0
3358 2 149.08803999999998 3.7711199999999963 5.0
3359 2 150.44316000000003 4.140559999999994 5.0
3360 2 151.49 2.626959999999997 5.0
3361 2 151.49144 3.19568000000001 5.0
3362 2 152.96424000000002 1.473559999999992 5.0
3494 2 152.59951999999998 0.2864799999999832 5.0
3534 2 141.8832 11.403680000000008 5.0
3535 2 140.84712000000002 12.325160000000011 5.0
3555 2 133.98404 13.31232 5.0
3569 2 134.70659999999998 12.911200000000008 5.0
3570 2 135.06932 11.296279999999996 5.0
3571 2 136.27943999999997 13.64391999999998 5.0
3572 2 136.90152 11.380719999999997 5.0
3573 2 137.28836 12.64615999999998 5.0
3575 2 139.13031999999998 10.63324 5.0
3576 2 139.76867999999996 9.720560000000006 5.0
3585 2 151.28431999999998 -0.04204000000001429 5.0
3587 2 150.33216 1.4450399999999775 5.0
3588 2 149.48484000000002 1.4771200000000135 5.0
3658 2 199.91324000000003 -1.4190399999999954 5.0
3787 2 187.00016 -39.233239999999995 5.0
3865 2 198.49912 -25.93848 5.0
3866 2 197.84076 -26.320719999999994 5.0
3867 2 197.59604000000002 -27.66695999999999 5.0
3881 2 199.99932 -55.4434 5.0
4009 2 152.40911999999997 -143.2354 5.0
4030 2 139.84668 -157.83196 5.0
4031 2 139.16044 -156.78288 5.0
4032 2 139.13 -159.14456 5.0
4175 2 182.06068000000005 -123.44548 5.0
4176 2 182.64792 -122.22008 5.0
4177 2 182.83676000000003 -124.6468 5.0
4178 2 184.63 -124.15884 5.0
4179 2 184.15084000000002 -124.67528 5.0
4182 2 184.53431999999998 -122.50608 5.0
4183 2 183.90624000000003 -121.99352 5.0
4184 2 186.25056 -122.04508 5.0
4210 2 146.74276000000003 -149.64672000000002 5.0
4211 2 146.28519999999997 -151.3078 5.0
4212 2 147.79568 -152.12056 5.0
4213 2 148.82736 -150.57608 5.0
4214 2 148.11636 -149.5352 5.0
4276 2 159.29584 -132.54048 5.0
4277 2 160.60880000000003 -132.31268 5.0
4290 2 158.73376000000002 -133.80079999999998 5.0
4291 2 159.50904000000003 -134.94580000000002 5.0
4491 2 -8.70496 -85.63044 5.0
4492 2 -7.602839999999986 -87.14348000000001 5.0
4530 2 -9.00091999999998 -125.21028 5.0
4531 2 -9.089600000000019 -127.2524 5.0
4532 2 -9.523879999999991 -126.4658 5.0
4533 2 -7.664880000000011 -124.95944 5.0
4534 2 -6.730840000000001 -125.96195999999999 5.0
4536 2 -5.991320000000002 -129.61612 5.0
4537 2 -7.7396400000000085 -127.61995999999999 5.0
4538 2 -7.005120000000005 -127.20768 5.0
4719 2 -24.159320000000008 -148.44188 5.0
4729 2 -7.176960000000008 -131.84752 5.0
4730 2 -7.893079999999998 -132.2412 5.0
4732 2 -8.927960000000013 -129.84644 5.0
4733 2 -7.7798799999999915 -129.53712 5.0
4734 2 -7.131159999999994 -129.91848 5.0
4825 2 -8.17707999999999 -133.52996000000002 5.0
4937 2 -16.234560000000016 -27.55632 5.0
4938 2 -15.330439999999982 -28.4392 5.0
5438 2 128.27820000000003 17.759120000000024 5.0
5626 2 62.65179999999998 79.57036 5.0
5648 2 70.67696000000001 69.79644000000002 5.0
5663 2 106.18047999999999 37.02619999999999 5.0
5664 2 105.13856000000004 37.93036000000001 5.0
5667 2 107.66900000000004 35.26631999999998 5.0
5668 2 106.18387999999999 36.36936 5.0
5669 2 105.02139999999997 35.20431999999997 5.0
5751 2 -139.55932 113.21735999999999 5.0
5757 2 -149.416 119.3906 5.0
5758 2 -148.04912000000002 119.30923999999999 5.0
5761 2 -151.76999999999998 118.91399999999999 5.0
5763 2 -161.746936 122.02231999999998 5.0
5766 2 -142.11376 113.66752000000002 5.0
5768 2 -141.21564 112.60892000000001 5.0
5770 2 -139.20532 115.34984000000003 5.0
5773 2 -145.323 116.887 5.0
5774 2 -144.18336 116.61435999999998 5.0
5775 2 -145.87024 118.35916000000003 5.0
5839 2 -104.66508 199.88716 5.0
6036 2 -30.40075999999999 42.29284000000001 5.0
6087 2 -15.895759999999996 -24.116960000000006 5.0
6088 2 -17.06504000000001 -24.367760000000004 5.0
6129 2 -137.09872 114.21012000000002 5.0
6130 2 -137.7134 115.28268000000003 5.0
6135 2 -126.94624 106.77756 5.0
6136 2 -125.517 105.62928 5.0
6137 2 -125.57168 104.83872000000002 5.0
6138 2 -120.95072 105.28059999999999 5.0
6139 2 -120.77584 103.80647999999997 5.0
6140 2 -122.25968 103.08828 5.0
6141 2 -122.82952 105.52068000000003 5.0
6142 2 -123.3522 104.19083999999998 5.0
6143 2 -118.33216 104.87088 5.0
6167 2 -199.9099598 -59.13795999999999 5.0
6181 2 -184.600532 -14.288319999999999 5.0
6182 2 -183.331884 -13.903079999999989 5.0
6183 2 -167.77184 -0.3140799999999899 5.0
6190 2 -148.23964 7.544319999999999 5.0
6191 2 -147.17944 6.573800000000006 5.0
6194 2 -146.08952 9.096319999999992 5.0
6347 2 -199.991747704 -14.124880000000019 5.0
6373 2 -192.081964 -17.7646 5.0
6375 2 -194.498428 -17.31528 5.0
6376 2 -194.81572 -18.69343999999998 5.0
6566 2 -184.437268 -18.67580000000001 5.0
6567 2 -183.115816 -18.302520000000015 5.0
6608 2 -167.79274800000002 -6.110600000000005 5.0
6609 2 -166.562284 -5.791439999999994 5.0
6612 2 -166.087704 -4.739679999999993 5.0
6613 2 -167.11666 -3.1556400000000053 5.0
6614 2 -166.558084 -2.411599999999993 5.0
6617 2 -164.823276 -2.367279999999994 5.0
6618 2 -164.38912399999998 -0.9928799999999853 5.0
6688 2 91.9418 188.18644 5.0
6689 2 91.11072000000001 189.59832 5.0
6690 2 91.10888 189.01316000000003 5.0
6693 2 97.83460000000002 199.56915999999995 5.0
6694 2 97.35996 198.36884000000003 5.0
6704 2 91.63920000000002 192.17976 5.0
6706 2 93.32664 190.66448000000003 5.0
6707 2 92.41460000000001 190.80848000000003 5.0
6743 2 69.41996 186.6014 5.0
6931 2 -173.404492 -129.92996 5.0
6932 2 -172.161292 -129.98332 5.0
6937 2 -165.042188 -128.11144000000002 5.0
6938 2 -162.947644 -126.547 5.0
6939 2 -163.923904 -125.49612 5.0
6962 2 -183.880208 -130.7794 5.0
6979 2 -183.996108 -128.39996000000002 5.0
6980 2 -184.583572 -129.69008 5.0
6985 2 -188.11466000000001 -128.808 5.0
6986 2 -188.684496 -130.03232 5.0
7000 2 -196.7986304 -126.04520000000001 5.0
7081 2 -178.736948 -199.917632 5.0
7134 2 -103.33704 -138.2328 5.0
7137 2 -119.59768 -133.13324 5.0
7168 2 -117.99612 -137.29212 5.0
7169 2 -120.98044 -135.61988000000002 5.0
7170 2 -120.10079999999999 -135.81304 5.0
7171 2 -119.44108 -137.36544 5.0
7243 2 -170.953188 125.86232000000001 5.0
7256 2 -174.801616 130.94168000000002 5.0
7257 2 -174.061448 129.87079999999997 5.0
7273 2 -175.568068 128.22724 5.0
7274 2 -174.58108 128.54559999999998 5.0
7283 2 -178.560772 130.52416 5.0
7284 2 -181.300432 129.84271999999999 5.0
7285 2 -179.080984 129.19916 5.0
7286 2 -180.24352 128.89499999999998 5.0
7332 2 -146.54144 115.87304 5.0
7333 2 -147.96896 117.03708 5.0
7336 2 -162.29769199999998 121.36252000000002 5.0
7337 2 -162.111904 119.86788000000001 5.0
7338 2 -163.56782 119.13652000000002 5.0
7366 2 189.93088 141.20491999999996 5.0
7367 2 191.0992 140.08544 5.0
7388 2 158.35895999999997 199.88315999999998 5.0
7451 2 150.86756000000003 165.26844 5.0
7457 2 146.58652 163.59352 5.0
7458 2 145.16716000000002 163.41964000000002 5.0
7459 2 144.73579999999998 162.2652 5.0
7505 2 123.36528000000004 174.19108 5.0
7689 2 95.98264 183.48483999999996 5.0
7690 2 97.32224000000002 183.76084000000003 5.0
7693 2 96.39823999999999 186.21640000000002 5.0
7705 2 102.12952000000001 183.41772000000003 5.0
7707 2 106.38348000000002 182.41728 5.0
7708 2 103.81407999999999 183.41251999999997 5.0
7747 2 173.76315999999997 -22.9298 5.0
7760 2 175.78235999999998 -23.952920000000006 5.0
7761 2 174.57044000000002 -24.008359999999982 5.0
7762 2 178.41884 -24.85432 5.0
7765 2 176.57888000000003 -25.53116 5.0
7766 2 177.9676 -21.231920000000002 5.0
7767 2 176.36624 -22.098479999999995 5.0
7768 2 176.43988000000002 -23.12204 5.0
7769 2 178.32891999999998 -23.720199999999977 5.0
7770 2 179.03552000000002 -22.819680000000005 5.0
7821 2 161.14459999999997 -4.954759999999993 5.0
7822 2 159.20668 -6.75175999999999 5.0
7823 2 160.10104 -4.053840000000008 5.0
7824 2 158.38592 -5.70872 5.0
7825 2 158.78012 -4.423879999999997 5.0
8110 2 143.32424000000003 9.655360000000002 5.0
8112 2 142.96107999999998 8.459159999999997 5.0
8203 2 132.42183999999997 11.535599999999988 5.0
8204 2 132.825 12.914240000000007 5.0
8310 2 199.98160000000001 -7.8197999999999865 5.0
8519 2 199.86084 127.06764000000004 5.0
8526 2 179.6986 -88.01947999999999 5.0
8555 2 187.31848000000002 -40.114360000000005 5.0
8556 2 187.23092000000003 -42.657520000000005 5.0
8557 2 186.35748 -41.55459999999999 5.0
8558 2 189.8752 -39.10607999999999 5.0
8605 2 196.6898 -121.15692 5.0
8689 2 180.83268000000004 -87.74592000000001 5.0
8720 2 199.87644 -28.30619999999999 5.0
8721 2 198.54864000000003 -28.594359999999995 5.0
8739 2 189.54692 -40.36868000000001 5.0
8740 2 188.85212 -40.713840000000005 5.0
8742 2 188.52752000000004 -42.42784 5.0
8802 2 181.57452 -75.17799999999998 5.0
8810 2 181.38456000000002 -86.38256 5.0
9012 2 147.26404000000002 -153.83804 5.0
9013 2 145.82864 -153.90980000000002 5.0
9047 2 134.39484 -163.24502 5.0
9049 2 132.57403999999997 -162.96636 5.0
9050 2 134.26208000000003 -165.43153999999998 5.0
9051 2 134.8818 -164.35134399999998 5.0
9066 2 130.10807999999997 -161.338132 5.0
9246 2 169.75220000000002 -131.79808 5.0
9247 2 171.17588 -131.72816 5.0
9250 2 171.77416 -130.12988 5.0
9251 2 171.87828000000002 -130.48167999999998 5.0
9253 2 172.75336 -128.53388 5.0
9455 2 99.07216 -198.4663176 5.0
9462 2 102.43815999999998 -192.4507 5.0
9685 2 29.19763999999998 -199.91875832 5.0
9818 2 -9.008440000000007 -88.25824 5.0
9820 2 -9.89536000000001 -85.88835999999999 5.0
9821 2 -10.318279999999987 -87.16444000000001 5.0
10078 2 -20.050399999999996 -64.47008 5.0
10079 2 -20.493719999999996 -65.80292 5.0
10080 2 -18.75424000000001 -64.15611999999999 5.0
10113 2 -15.871160000000003 -48.05527999999998 5.0
10203 2 -21.71132 -147.43344000000002 5.0
10271 2 -69.1302 -145.655 5.0
10431 2 -5.979479999999995 -134.29284 5.0
10432 2 -7.230279999999993 -134.51324 5.0
11322 2 127.31155999999999 18.523319999999984 5.0
11680 2 39.72543999999999 98.26148 5.0
11681 2 38.787800000000004 99.21096 5.0
11789 2 46.30879999999999 93.07324 5.0
11796 2 62.28764000000001 78.36791999999997 5.0
11797 2 60.97752000000003 78.03787999999997 5.0
11852 2 81.61779999999999 61.89492000000001 5.0
11853 2 81.97591999999997 63.169880000000035 5.0
11856 2 71.96140000000003 70.12955999999997 5.0
11857 2 72.32427999999999 71.36955999999998 5.0
11895 2 98.59168 41.23339999999999 5.0
11897 2 96.00056000000001 43.78468000000001 5.0
11898 2 96.39796000000001 45.106480000000005 5.0
11899 2 97.60548 42.72803999999999 5.0
11900 2 96.80104 42.76292000000001 5.0
11901 2 97.77567999999997 45.47 5.0
11902 2 98.7844 44.590480000000014 5.0
11903 2 98.79267999999996 43.91088000000002 5.0
11912 2 107.30068 34.029679999999985 5.0
11915 2 106.00315999999998 33.702759999999984 5.0
11935 2 100.26808 42.816959999999995 5.0
11936 2 99.90755999999999 41.563319999999976 5.0
11940 2 103.40251999999998 36.27495999999999 5.0
11941 2 104.21192000000002 35.2328 5.0
12109 2 -161.130532 119.27864 5.0
12457 2 -20.42004 88.11144000000002 5.0
12562 2 -43.99995999999999 75.38083999999998 5.0
12716 2 -123.20784 106.315 5.0
12717 2 -124.35548 106.57600000000002 5.0
12731 2 -136.68635999999998 111.98003999999997 5.0
12732 2 -137.56644 113.05399999999997 5.0
12733 2 -138.93016 112.75052 5.0
12736 2 -137.13324 110.66480000000001 5.0
12738 2 -135.21696 112.20432 5.0
12740 2 -132.51024 107.09956 5.0
12748 2 -120.37708 105.95952 5.0
12749 2 -119.06976 105.93683999999996 5.0
12884 2 -152.99292 0.8382800000000259 5.0
12885 2 -152.56452 1.5782399999999939 5.0
12900 2 -149.78564 11.629520000000014 5.0
12905 2 -145.44204 10.671039999999977 5.0
12906 2 -146.9832 12.382360000000006 5.0
12907 2 -146.99416 11.757360000000006 5.0
12908 2 -149.14284 10.850999999999999 5.0
12909 2 -147.93372 10.814240000000012 5.0
12910 2 -149.73288 9.263999999999982 5.0
12911 2 -148.22827999999998 8.22872000000001 5.0
12912 2 -147.26636 9.155879999999996 5.0
12989 2 -115.07404 27.63347999999999 5.0
12990 2 -116.08032 28.60656 5.0
12996 2 -142.02096 16.143399999999986 5.0
13309 2 -192.051568 -18.33287999999999 5.0
13310 2 -190.920388 -20.66476 5.0
13311 2 -190.624296 -19.40907999999999 5.0
13721 2 -168.109624 -3.2763999999999953 5.0
13770 2 94.17436000000004 187.5222 5.0
13771 2 93.41296 188.42572 5.0
13772 2 93.87824 189.83812 5.0
13775 2 95.56716 187.70420000000001 5.0
13776 2 91.27391999999998 199.95524 5.0
13783 2 121.32299999999998 199.98075999999998 5.0
13825 2 27.55904000000001 151.60984000000002 5.0
13827 2 28.85512 151.76132 5.0
13828 2 29.735360000000014 150.72000000000003 5.0
14067 2 -10.925520000000006 92.45339999999999 5.0
14068 2 -12.218760000000003 92.46576000000005 5.0
14081 2 -5.930599999999998 101.25675999999999 5.0
14082 2 -4.437720000000013 100.51236 5.0
14083 2 -7.030599999999993 99.85400000000004 5.0
14085 2 -10.140799999999984 91.2944 5.0
14086 2 -10.712879999999984 90.02463999999998 5.0
14157 2 -6.152359999999987 102.01844 5.0
14228 2 -171.73848 -127.69104 5.0
14229 2 -171.572804 -129.34956 5.0
14230 2 -169.855144 -129.57708 5.0
14231 2 -169.926824 -127.27728 5.0
14232 2 -169.225612 -128.33411999999998 5.0
14233 2 -174.156504 -128.79408 5.0
14264 2 -156.98492 -132.7742 5.0
14265 2 -155.75092 -132.55244 5.0
14294 2 -190.467276 -129.84572 5.0
14295 2 -192.456344 -127.9794 5.0
14296 2 -190.624888 -128.19528 5.0
14297 2 -191.176896 -127.76312 5.0
14334 2 -195.497924 -125.90447999999999 5.0
14675 2 -104.65844 -138.45592 5.0
14676 2 -105.24168 -139.72772 5.0
14864 2 -166.280712 124.24896000000001 5.0
14873 2 -170.902776 126.50139999999999 5.0
14874 2 -169.719952 127.52588000000003 5.0
14875 2 -172.340148 127.75419999999997 5.0
14900 2 -181.246772 130.63760000000002 5.0
14901 2 -182.678596 131.77960000000002 5.0
14938 2 -155.42552 115.91095999999999 5.0
14939 2 -156.54232000000002 116.90228000000002 5.0
14991 2 -145.68272 114.20976000000002 5.0
14992 2 -146.58292 115.08359999999999 5.0
14993 2 -165.83786 119.93856 5.0
14994 2 -164.68322 120.24935999999997 5.0
14995 2 -166.84758 121.69207999999998 5.0
14996 2 -166.897444 120.87995999999998 5.0
14997 2 -165.683432 122.63223999999997 5.0
14998 2 -164.58102 122.40064000000001 5.0
14999 2 -164.16986 121.55976000000004 5.0
15073 2 198.10408 138.01088 5.0
15074 2 196.89972 137.70872000000003 5.0
15075 2 195.87775999999997 138.54823999999996 5.0
15076 2 195.90732000000003 139.54379999999998 5.0
15078 2 190.45548000000002 142.53735999999998 5.0
15081 2 199.93615999999997 134.522 5.0
15091 2 188.81344 140.89371999999997 5.0
15092 2 187.73456 141.84528 5.0
15250 2 118.85360000000003 177.53724 5.0
15268 2 122.42948000000001 174.77724 5.0
15269 2 119.86151999999998 175.16328 5.0
15270 2 120.95128 174.05955999999998 5.0
15271 2 124.35224 174.50979999999998 5.0
15272 2 127.06156000000004 174.8904 5.0
15273 2 126.58976000000001 173.71972 5.0
15481 2 97.81412 185.16395999999997 5.0
15482 2 97.18399999999997 186.0942 5.0
15553 2 168.04375999999996 -13.93531999999999 5.0
15554 2 169.73368 -12.245360000000005 5.0
15555 2 168.43848000000003 -12.613880000000023 5.0
15567 2 159.98444 -6.778879999999987 5.0
15568 2 161.14600000000002 -5.627920000000017 5.0
15569 2 160.97296 -8.277960000000007 5.0
15570 2 162.26104000000004 -7.94695999999999 5.0
15571 2 162.62444 -6.719519999999989 5.0
16390 2 178.82988 -85.72456 5.0
16391 2 179.04132000000004 -87.58184 5.0
16392 2 177.45803999999998 -88.06224 5.0
16393 2 176.57416 -87.06004 5.0
16394 2 177.05703999999997 -85.83524 5.0
16421 2 189.25991999999997 -34.25199999999998 5.0
16422 2 189.04816 -38.12904 5.0
16423 2 187.44964 -38.39920000000001 5.0
16424 2 188.93488000000002 -36.08492000000001 5.0
16427 2 191.93704000000002 -30.605799999999988 5.0
16462 2 187.01448 -123.14931999999999 5.0
16463 2 186.43847999999997 -124.345 5.0
16465 2 192.50844 -122.69839999999999 5.0
16466 2 194.95764000000003 -121.65032 5.0
16467 2 195.1028 -123.28139999999999 5.0
16489 2 193.09064 -121.4144 5.0
16490 2 194.34575999999998 -121.17331999999999 5.0
16492 2 197.46956 -122.25819999999999 5.0
16493 2 196.88292 -123.48908 5.0
16580 2 190.16140000000001 -30.69884000000002 5.0
16581 2 189.68007999999998 -31.395880000000005 5.0
16582 2 189.7812 -29.070639999999997 5.0
16583 2 188.98952000000003 -28.658239999999978 5.0
16586 2 181.01484 -24.31984 5.0
16587 2 182.47935999999999 -25.43083999999999 5.0
16588 2 182.12763999999999 -26.667239999999993 5.0
16604 2 188.52931999999998 -31.544880000000006 5.0
16613 2 178.85884 -74.99296 5.0
16614 2 177.94572 -72.45332 5.0
16615 2 179.30380000000002 -72.19800000000001 5.0
16616 2 180.19932 -73.95068 5.0
16617 2 180.2772 -73.21991999999999 5.0
16634 2 179.12304 -85.3646 5.0
16635 2 180.36864000000003 -85.21115999999999 5.0
16637 2 181.06064000000003 -76.4138 5.0
16639 2 179.86023999999998 -76.62868 5.0
16645 2 177.42924000000005 -73.69404 5.0
16646 2 178.291 -74.93376 5.0
16762 2 154.75667999999996 -144.453 5.0
16830 2 124.97748000000001 -175.021028 5.0
16933 2 128.81543999999997 -167.651692 5.0
16934 2 130.16575999999998 -167.65118 5.0
16937 2 133.02836000000002 -159.2618 5.0
16938 2 133.78312 -160.62144 5.0
16939 2 131.52463999999998 -159.43403999999998 5.0
16940 2 131.17467999999997 -160.928256 5.0
16941 2 132.45776 -161.78602 5.0
17119 2 177.38896 -104.66772 5.0
17120 2 176.9248 -105.92135999999999 5.0
17121 2 175.72587999999996 -106.15004 5.0
17195 2 163.64724 -133.40467999999998 5.0
17196 2 162.91536000000002 -132.31992 5.0
17197 2 163.08556 -134.58472 5.0
17198 2 161.29924 -134.41616 5.0
17199 2 161.16768000000002 -132.76704 5.0
17353 2 102.28708 -194.709812 5.0
17354 2 102.90552000000002 -193.7109 5.0
17359 2 104.09152 -191.305784 5.0
17371 2 100.16251999999997 -193.754368 5.0
17372 2 100.89844 -194.76324 5.0
17631 2 26.85844 -199.1302348 5.0
17637 2 -32.266999999999996 -149.16624000000002 5.0
17862 2 -17.78244000000001 -65.02011999999999 5.0
17863 2 -17.812639999999988 -65.89352 5.0
17864 2 -16.30632 -66.93476000000001 5.0
18025 2 -9.616839999999996 -111.74544 5.0
18026 2 -9.944320000000005 -113.0204 5.0
18027 2 -9.008960000000002 -114.09268 5.0
18040 2 -7.568240000000003 -113.81164 5.0
18041 2 -7.058080000000018 -112.586 5.0
18241 2 -16.71884 -47.103920000000016 5.0
18286 2 -67.83116000000001 -145.70456000000001 5.0
18329 2 -93.98036 -139.98684 5.0
18330 2 -94.72431999999999 -138.85739999999998 5.0
18411 2 -20.12124 -146.95628 5.0
18415 2 -19.22412 -148.04628 5.0
19708 2 128.31 16.85419999999999 5.0
19709 2 127.0838 15.694000000000017 5.0
19710 2 129.79588 15.885760000000005 5.0
19711 2 129.4436 14.530999999999977 5.0
19712 2 128.19124 14.182119999999998 5.0
19713 2 126.45004 15.713999999999999 5.0
20252 2 35.77368000000001 96.02388000000002 5.0
20253 2 37.115639999999985 98.51024000000001 5.0
20254 2 36.54136 98.83476000000002 5.0
20263 2 45.36055999999999 94.577 5.0
20265 2 45.63944000000001 97.33204 5.0
20268 2 44.545559999999995 94.64287999999999 5.0
20269 2 39.34139999999999 96.95551999999998 5.0
20271 2 37.538280000000015 96.86332000000004 5.0
20272 2 37.09395999999998 96.18176 5.0
20386 2 51.258999999999986 86.28956 5.0
20404 2 47.64780000000002 93.37567999999999 5.0
20405 2 50.35379999999998 87.77248000000003 5.0
20406 2 51.52968000000001 89.46352000000002 5.0
20407 2 51.52396000000002 88.97716000000003 5.0
20411 2 49.440799999999996 87.82116000000002 5.0
20428 2 52.60912000000002 86.60764 5.0
20429 2 52.97944000000001 87.762 5.0
20518 2 80.48739999999998 64.97744 5.0
20519 2 80.49575999999996 64.20076 5.0
20520 2 79.44927999999999 65.82936000000001 5.0
20521 2 78.16019999999997 65.45923999999997 5.0
20522 2 77.76371999999998 64.13412 5.0
20633 2 -37.57303999999999 199.93843999999996 5.0
20764 2 -149.81972000000002 117.23932000000002 5.0
20765 2 -148.96256 116.68435999999997 5.0
20767 2 -152.33780000000002 117.62164000000001 5.0
20768 2 -151.45276 116.48024000000004 5.0
20770 2 -154.19028 116.28291999999999 5.0
20771 2 -153.75636 117.44867999999997 5.0
20772 2 -156.49908 117.62720000000002 5.0
20773 2 -160.216544 119.58872000000002 5.0
20774 2 -157.50396 120.03967999999998 5.0
20776 2 -157.98868 118.79764 5.0
20814 2 -160.458892 122.01835999999997 5.0
20815 2 -159.6852 120.94472000000002 5.0
21293 2 -31.299080000000004 43.338600000000014 5.0
21333 2 -35.03844000000001 70.5462 5.0
21335 2 -20.89475999999999 86.93019999999996 5.0
21455 2 -30.03056000000001 42.26595999999998 5.0
21456 2 -29.421400000000006 45.053559999999976 5.0
21457 2 -30.90556000000001 44.74708000000001 5.0
21493 2 -44.40367999999998 74.92532 5.0
21496 2 -41.83840000000001 74.20760000000001 5.0
21497 2 -42.711960000000005 75.41104000000001 5.0
21667 2 -126.4676 108.01747999999998 5.0
21669 2 -124.90048 108.13492000000002 5.0
21679 2 -134.57263999999998 110.56667999999996 5.0
21680 2 -133.08948 109.51135999999997 5.0
21681 2 -133.52052 110.35739999999998 5.0
21682 2 -135.76724000000002 108.72820000000002 5.0
21683 2 -135.73072000000002 109.64256 5.0
21684 2 -134.76032 107.86739999999998 5.0
21685 2 -133.60404 108.17052000000001 5.0
21686 2 -131.03824 107.81100000000004 5.0
21687 2 -131.24036 109.32528000000002 5.0
21688 2 -130.68372 109.99264 5.0
21689 2 -129.1642 107.56124 5.0
21690 2 -130.11056 107.25232 5.0
21698 2 -112.53976 97.79836 5.0
21700 2 -115.22972 100.85519999999997 5.0
21701 2 -114.26892 99.89420000000001 5.0
21702 2 -110.56812000000001 99.25063999999998 5.0
21703 2 -112.08152 99.05968000000001 5.0
21704 2 -112.39896 101.31432000000001 5.0
21705 2 -112.89152 100.14568000000003 5.0
21709 2 -111.13444 96.69471999999996 5.0
21710 2 -111.18392 95.87443999999999 5.0
21711 2 -109.96744000000001 97.63475999999997 5.0
21712 2 -108.871 97.40415999999999 5.0
21841 2 -82.04088 90.32596000000001 5.0
21842 2 -83.52304 90.40499999999997 5.0
21942 2 -141.85076 11.696920000000034 5.0
21943 2 -142.22788 14.340520000000026 5.0
21945 2 -140.52828 12.061880000000002 5.0
21946 2 -149.5346 12.876079999999973 5.0
21947 2 -148.15152 13.407280000000014 5.0
21983 2 -86.47464000000001 51.664079999999984 5.0
21984 2 -89.86828 50.59779999999998 5.0
21985 2 -90.92191999999999 51.61076000000003 5.0
21986 2 -88.63271999999999 50.84171999999998 5.0
21987 2 -88.25559999999999 51.46248 5.0
21988 2 -90.56352000000001 53.016760000000005 5.0
21989 2 -89.3634 53.46180000000001 5.0
21990 2 -88.72004 53.126000000000005 5.0
21996 2 -101.55624 38.54456000000002 5.0
21997 2 -100.27404 38.89583999999999 5.0
21998 2 -101.72044 36.77632000000003 5.0
22088 2 -142.93099999999998 12.73259999999999 5.0
22089 2 -142.6694 14.047119999999978 5.0
22647 2 -199.62533644 -26.959519999999998 5.0
22651 2 -193.92938 -19.65052 5.0
22652 2 -193.287364 -19.656319999999994 5.0
22656 2 -192.205496 -21.002800000000008 5.0
22983 2 -175.12273199999998 -3.2928799999999967 5.0
22984 2 -174.654452 -4.877440000000007 5.0
22985 2 -168.814064 -0.7159599999999955 5.0
22986 2 -169.194616 -1.7018799999999885 5.0
22989 2 -170.074668 -6.350600000000014 5.0
22990 2 -168.31904 -5.784079999999989 5.0
22991 2 -168.709476 -4.067360000000008 5.0
23039 2 79.63767999999999 189.22012 5.0
23040 2 79.99740000000003 190.56776000000002 5.0
23041 2 77.76371999999998 189.11131999999998 5.0
23042 2 78.35160000000002 188.77708 5.0
23064 2 122.71895999999998 199.93144 5.0
23105 2 28.42920000000001 147.32144 5.0
23109 2 28.67144000000002 149.11091999999996 5.0
23110 2 29.448759999999993 149.49608 5.0
23139 2 29.250959999999992 187.96195999999998 5.0
23181 2 69.76135999999997 187.9384 5.0
23440 2 -12.029799999999994 89.80043999999998 5.0
23488 2 27.19155999999998 105.02712000000002 5.0
23489 2 26.825199999999995 103.71123999999998 5.0
23490 2 25.57947999999999 103.39407999999997 5.0
23491 2 24.535200000000003 104.88927999999999 5.0
23492 2 25.732 106.01067999999998 5.0
23495 2 17.923039999999986 119.72268000000003 5.0
23496 2 17.087919999999997 119.28876000000002 5.0
23722 2 -155.00116 -134.67768 5.0
23723 2 -155.14596 -133.02156000000002 5.0
23724 2 -153.43048 -132.54059999999998 5.0
23725 2 -153.20839999999998 -134.85935999999998 5.0
23726 2 -152.63548 -133.6368 5.0
23727 2 -157.5898 -134.07108 5.0
23746 2 -172.21741600000001 -127.29988 5.0
23747 2 -173.56968799999999 -127.518 5.0
23786 2 -165.7782 -126.94351999999999 5.0
23787 2 -165.271828 -125.75583999999999 5.0
23834 2 -193.049824 -129.26864 5.0
23907 2 -194.952852 -124.64168 5.0
23909 2 -197.0776792 -121.67063999999999 5.0
23910 2 -198.3899576 -121.8716 5.0
23911 2 -196.2716 -123.45836 5.0
23912 2 -196.1742496 -122.6172 5.0
23913 2 -197.6237888 -124.417 5.0
23934 2 -198.2685516 -124.29724 5.0
23935 2 -198.9709468 -123.17496 5.0
24212 2 -180.132916 -199.86832804 5.0
24392 2 -103.20063999999999 -140.90512 5.0
24393 2 -104.5316 -140.84388 5.0
24416 2 -121.54928000000001 -134.6098 5.0
24417 2 -120.97248 -133.321 5.0
24418 2 -115.28744 -136.99936 5.0
24419 2 -115.85664 -138.28068000000002 5.0
24420 2 -115.13564 -139.38708 5.0
24421 2 -113.31215999999999 -138.91464 5.0
24422 2 -113.73692 -139.39784 5.0
24425 2 -113.4308 -137.3002 5.0