WSe2_MTB_1_3.lmp (written by Nuruzzaman Sakib with the help of ASE)
612	atoms
2	atom types
0.0	115.586716489	xlo xhi
0.0	16.410000000	ylo yhi
0.0	1000.000000000	zlo zhi

Masses

1	78.960000000		# Se
2	183.840000000		# W

Atoms # charge

1	1	0.0	3.789717693	3.281983590	498.329456000
2	1	0.0	0.947422317	1.640983590	498.329456000
3	1	0.0	3.789717693	3.281983590	501.670544000
4	1	0.0	0.947422317	1.640983590	501.670544000
5	2	0.0	4.737168433	1.640983590	500.000000000
6	2	0.0	1.894873058	3.281983590	500.000000000
7	1	0.0	3.789717693	6.563983590	498.329456000
8	1	0.0	0.947422317	4.922983590	498.329456000
9	1	0.0	3.789717693	6.563983590	501.670544000
10	1	0.0	0.947422317	4.922983590	501.670544000
11	2	0.0	4.737168433	4.922983590	500.000000000
12	2	0.0	1.894873058	6.563983590	500.000000000
13	1	0.0	3.789717693	9.845983590	498.329456000
14	1	0.0	0.947422317	8.204983590	498.329456000
15	1	0.0	3.789717693	9.845983590	501.670544000
16	1	0.0	0.947422317	8.204983590	501.670544000
17	2	0.0	4.737168433	8.204983590	500.000000000
18	2	0.0	1.894873058	9.845983590	500.000000000
19	1	0.0	3.789717693	13.127983590	498.329456000
20	1	0.0	0.947422317	11.486983590	498.329456000
21	1	0.0	3.789717693	13.127983590	501.670544000
22	1	0.0	0.947422317	11.486983590	501.670544000
23	2	0.0	4.737168433	11.486983590	500.000000000
24	2	0.0	1.894873058	13.127983590	500.000000000
25	1	0.0	3.789717693	16.409983590	498.329456000
26	1	0.0	0.947422317	14.768983590	498.329456000
27	1	0.0	3.789717693	16.409983590	501.670544000
28	1	0.0	0.947422317	14.768983590	501.670544000
29	2	0.0	4.737168433	14.768983590	500.000000000
30	2	0.0	1.894873058	16.409983590	500.000000000
31	1	0.0	9.474308443	3.281983590	498.329456000
32	1	0.0	6.632013068	1.640983590	498.329456000
33	1	0.0	9.474308443	3.281983590	501.670544000
34	1	0.0	6.632013068	1.640983590	501.670544000
35	2	0.0	10.421759183	1.640983590	500.000000000
36	2	0.0	7.579463808	3.281983590	500.000000000
37	1	0.0	9.474308443	6.563983590	498.329456000
38	1	0.0	6.632013068	4.922983590	498.329456000
39	1	0.0	9.474308443	6.563983590	501.670544000
40	1	0.0	6.632013068	4.922983590	501.670544000
41	2	0.0	10.421759183	4.922983590	500.000000000
42	2	0.0	7.579463808	6.563983590	500.000000000
43	1	0.0	9.474308443	9.845983590	498.329456000
44	1	0.0	6.632013068	8.204983590	498.329456000
45	1	0.0	9.474308443	9.845983590	501.670544000
46	1	0.0	6.632013068	8.204983590	501.670544000
47	2	0.0	10.421759183	8.204983590	500.000000000
48	2	0.0	7.579463808	9.845983590	500.000000000
49	1	0.0	9.474308443	13.127983590	498.329456000
50	1	0.0	6.632013068	11.486983590	498.329456000
51	1	0.0	9.474308443	13.127983590	501.670544000
52	1	0.0	6.632013068	11.486983590	501.670544000
53	2	0.0	10.421759183	11.486983590	500.000000000
54	2	0.0	7.579463808	13.127983590	500.000000000
55	1	0.0	9.474308443	16.409983590	498.329456000
56	1	0.0	6.632013068	14.768983590	498.329456000
57	1	0.0	9.474308443	16.409983590	501.670544000
58	1	0.0	6.632013068	14.768983590	501.670544000
59	2	0.0	10.421759183	14.768983590	500.000000000
60	2	0.0	7.579463808	16.409983590	500.000000000
61	1	0.0	15.158899193	3.281983590	498.329456000
62	1	0.0	12.316603818	1.640983590	498.329456000
63	1	0.0	15.158899193	3.281983590	501.670544000
64	1	0.0	12.316603818	1.640983590	501.670544000
65	2	0.0	16.106349934	1.640983590	500.000000000
66	2	0.0	13.264054559	3.281983590	500.000000000
67	1	0.0	15.158899193	6.563983590	498.329456000
68	1	0.0	12.316603818	4.922983590	498.329456000
69	1	0.0	15.158899193	6.563983590	501.670544000
70	1	0.0	12.316603818	4.922983590	501.670544000
71	2	0.0	16.106349934	4.922983590	500.000000000
72	2	0.0	13.264054559	6.563983590	500.000000000
73	1	0.0	15.158899193	9.845983590	498.329456000
74	1	0.0	12.316603818	8.204983590	498.329456000
75	1	0.0	15.158899193	9.845983590	501.670544000
76	1	0.0	12.316603818	8.204983590	501.670544000
77	2	0.0	16.106349934	8.204983590	500.000000000
78	2	0.0	13.264054559	9.845983590	500.000000000
79	1	0.0	15.158899193	13.127983590	498.329456000
80	1	0.0	12.316603818	11.486983590	498.329456000
81	1	0.0	15.158899193	13.127983590	501.670544000
82	1	0.0	12.316603818	11.486983590	501.670544000
83	2	0.0	16.106349934	11.486983590	500.000000000
84	2	0.0	13.264054559	13.127983590	500.000000000
85	1	0.0	15.158899193	16.409983590	498.329456000
86	1	0.0	12.316603818	14.768983590	498.329456000
87	1	0.0	15.158899193	16.409983590	501.670544000
88	1	0.0	12.316603818	14.768983590	501.670544000
89	2	0.0	16.106349934	14.768983590	500.000000000
90	2	0.0	13.264054559	16.409983590	500.000000000
91	1	0.0	20.843489944	3.281983590	498.329456000
92	1	0.0	18.001194569	1.640983590	498.329456000
93	1	0.0	20.843489944	3.281983590	501.670544000
94	1	0.0	18.001194569	1.640983590	501.670544000
95	2	0.0	21.790940684	1.640983590	500.000000000
96	2	0.0	18.948645309	3.281983590	500.000000000
97	1	0.0	20.843489944	6.563983590	498.329456000
98	1	0.0	18.001194569	4.922983590	498.329456000
99	1	0.0	20.843489944	6.563983590	501.670544000
100	1	0.0	18.001194569	4.922983590	501.670544000
101	2	0.0	21.790940684	4.922983590	500.000000000
102	2	0.0	18.948645309	6.563983590	500.000000000
103	1	0.0	20.843489944	9.845983590	498.329456000
104	1	0.0	18.001194569	8.204983590	498.329456000
105	1	0.0	20.843489944	9.845983590	501.670544000
106	1	0.0	18.001194569	8.204983590	501.670544000
107	2	0.0	21.790940684	8.204983590	500.000000000
108	2	0.0	18.948645309	9.845983590	500.000000000
109	1	0.0	20.843489944	13.127983590	498.329456000
110	1	0.0	18.001194569	11.486983590	498.329456000
111	1	0.0	20.843489944	13.127983590	501.670544000
112	1	0.0	18.001194569	11.486983590	501.670544000
113	2	0.0	21.790940684	11.486983590	500.000000000
114	2	0.0	18.948645309	13.127983590	500.000000000
115	1	0.0	20.843489944	16.409983590	498.329456000
116	1	0.0	18.001194569	14.768983590	498.329456000
117	1	0.0	20.843489944	16.409983590	501.670544000
118	1	0.0	18.001194569	14.768983590	501.670544000
119	2	0.0	21.790940684	14.768983590	500.000000000
120	2	0.0	18.948645309	16.409983590	500.000000000
121	1	0.0	26.528080694	3.281983590	498.329456000
122	1	0.0	23.685785319	1.640983590	498.329456000
123	1	0.0	26.528080694	3.281983590	501.670544000
124	1	0.0	23.685785319	1.640983590	501.670544000
125	2	0.0	27.475531435	1.640983590	500.000000000
126	2	0.0	24.633236059	3.281983590	500.000000000
127	1	0.0	26.528080694	6.563983590	498.329456000
128	1	0.0	23.685785319	4.922983590	498.329456000
129	1	0.0	26.528080694	6.563983590	501.670544000
130	1	0.0	23.685785319	4.922983590	501.670544000
131	2	0.0	27.475531435	4.922983590	500.000000000
132	2	0.0	24.633236059	6.563983590	500.000000000
133	1	0.0	26.528080694	9.845983590	498.329456000
134	1	0.0	23.685785319	8.204983590	498.329456000
135	1	0.0	26.528080694	9.845983590	501.670544000
136	1	0.0	23.685785319	8.204983590	501.670544000
137	2	0.0	27.475531435	8.204983590	500.000000000
138	2	0.0	24.633236059	9.845983590	500.000000000
139	1	0.0	26.528080694	13.127983590	498.329456000
140	1	0.0	23.685785319	11.486983590	498.329456000
141	1	0.0	26.528080694	13.127983590	501.670544000
142	1	0.0	23.685785319	11.486983590	501.670544000
143	2	0.0	27.475531435	11.486983590	500.000000000
144	2	0.0	24.633236059	13.127983590	500.000000000
145	1	0.0	26.528080694	16.409983590	498.329456000
146	1	0.0	23.685785319	14.768983590	498.329456000
147	1	0.0	26.528080694	16.409983590	501.670544000
148	1	0.0	23.685785319	14.768983590	501.670544000
149	2	0.0	27.475531435	14.768983590	500.000000000
150	2	0.0	24.633236059	16.409983590	500.000000000
151	1	0.0	32.212671445	3.281983590	498.329456000
152	1	0.0	29.370376069	1.640983590	498.329456000
153	1	0.0	32.212671445	3.281983590	501.670544000
154	1	0.0	29.370376069	1.640983590	501.670544000
155	2	0.0	33.160122185	1.640983590	500.000000000
156	2	0.0	30.317826810	3.281983590	500.000000000
157	1	0.0	32.212671445	6.563983590	498.329456000
158	1	0.0	29.370376069	4.922983590	498.329456000
159	1	0.0	32.212671445	6.563983590	501.670544000
160	1	0.0	29.370376069	4.922983590	501.670544000
161	2	0.0	33.160122185	4.922983590	500.000000000
162	2	0.0	30.317826810	6.563983590	500.000000000
163	1	0.0	32.212671445	9.845983590	498.329456000
164	1	0.0	29.370376069	8.204983590	498.329456000
165	1	0.0	32.212671445	9.845983590	501.670544000
166	1	0.0	29.370376069	8.204983590	501.670544000
167	2	0.0	33.160122185	8.204983590	500.000000000
168	2	0.0	30.317826810	9.845983590	500.000000000
169	1	0.0	32.212671445	13.127983590	498.329456000
170	1	0.0	29.370376069	11.486983590	498.329456000
171	1	0.0	32.212671445	13.127983590	501.670544000
172	1	0.0	29.370376069	11.486983590	501.670544000
173	2	0.0	33.160122185	11.486983590	500.000000000
174	2	0.0	30.317826810	13.127983590	500.000000000
175	1	0.0	32.212671445	16.409983590	498.329456000
176	1	0.0	29.370376069	14.768983590	498.329456000
177	1	0.0	32.212671445	16.409983590	501.670544000
178	1	0.0	29.370376069	14.768983590	501.670544000
179	2	0.0	33.160122185	14.768983590	500.000000000
180	2	0.0	30.317826810	16.409983590	500.000000000
181	1	0.0	37.897262195	3.281983590	498.329456000
182	1	0.0	35.054966820	1.640983590	498.329456000
183	1	0.0	37.897262195	3.281983590	501.670544000
184	1	0.0	35.054966820	1.640983590	501.670544000
185	2	0.0	38.844712935	1.640983590	500.000000000
186	2	0.0	36.002417560	3.281983590	500.000000000
187	1	0.0	37.897262195	6.563983590	498.329456000
188	1	0.0	35.054966820	4.922983590	498.329456000
189	1	0.0	37.897262195	6.563983590	501.670544000
190	1	0.0	35.054966820	4.922983590	501.670544000
191	2	0.0	38.844712935	4.922983590	500.000000000
192	2	0.0	36.002417560	6.563983590	500.000000000
193	1	0.0	37.897262195	9.845983590	498.329456000
194	1	0.0	35.054966820	8.204983590	498.329456000
195	1	0.0	37.897262195	9.845983590	501.670544000
196	1	0.0	35.054966820	8.204983590	501.670544000
197	2	0.0	38.844712935	8.204983590	500.000000000
198	2	0.0	36.002417560	9.845983590	500.000000000
199	1	0.0	37.897262195	13.127983590	498.329456000
200	1	0.0	35.054966820	11.486983590	498.329456000
201	1	0.0	37.897262195	13.127983590	501.670544000
202	1	0.0	35.054966820	11.486983590	501.670544000
203	2	0.0	38.844712935	11.486983590	500.000000000
204	2	0.0	36.002417560	13.127983590	500.000000000
205	1	0.0	37.897262195	16.409983590	498.329456000
206	1	0.0	35.054966820	14.768983590	498.329456000
207	1	0.0	37.897262195	16.409983590	501.670544000
208	1	0.0	35.054966820	14.768983590	501.670544000
209	2	0.0	38.844712935	14.768983590	500.000000000
210	2	0.0	36.002417560	16.409983590	500.000000000
211	1	0.0	43.581852945	3.281983590	498.329456000
212	1	0.0	40.739557570	1.640983590	498.329456000
213	1	0.0	43.581852945	3.281983590	501.670544000
214	1	0.0	40.739557570	1.640983590	501.670544000
215	2	0.0	44.529303686	1.640983590	500.000000000
216	2	0.0	41.687008311	3.281983590	500.000000000
217	1	0.0	43.581852945	6.563983590	498.329456000
218	1	0.0	40.739557570	4.922983590	498.329456000
219	1	0.0	43.581852945	6.563983590	501.670544000
220	1	0.0	40.739557570	4.922983590	501.670544000
221	2	0.0	44.529303686	4.922983590	500.000000000
222	2	0.0	41.687008311	6.563983590	500.000000000
223	1	0.0	43.581852945	9.845983590	498.329456000
224	1	0.0	40.739557570	8.204983590	498.329456000
225	1	0.0	43.581852945	9.845983590	501.670544000
226	1	0.0	40.739557570	8.204983590	501.670544000
227	2	0.0	44.529303686	8.204983590	500.000000000
228	2	0.0	41.687008311	9.845983590	500.000000000
229	1	0.0	43.581852945	13.127983590	498.329456000
230	1	0.0	40.739557570	11.486983590	498.329456000
231	1	0.0	43.581852945	13.127983590	501.670544000
232	1	0.0	40.739557570	11.486983590	501.670544000
233	2	0.0	44.529303686	11.486983590	500.000000000
234	2	0.0	41.687008311	13.127983590	500.000000000
235	1	0.0	43.581852945	16.409983590	498.329456000
236	1	0.0	40.739557570	14.768983590	498.329456000
237	1	0.0	43.581852945	16.409983590	501.670544000
238	1	0.0	40.739557570	14.768983590	501.670544000
239	2	0.0	44.529303686	14.768983590	500.000000000
240	2	0.0	41.687008311	16.409983590	500.000000000
241	1	0.0	49.266443696	3.281983590	498.329456000
242	1	0.0	46.424148321	1.640983590	498.329456000
243	1	0.0	49.266443696	3.281983590	501.670544000
244	1	0.0	46.424148321	1.640983590	501.670544000
245	2	0.0	50.213894436	1.640983590	500.000000000
246	2	0.0	47.371599061	3.281983590	500.000000000
247	1	0.0	49.266443696	6.563983590	498.329456000
248	1	0.0	46.424148321	4.922983590	498.329456000
249	1	0.0	49.266443696	6.563983590	501.670544000
250	1	0.0	46.424148321	4.922983590	501.670544000
251	2	0.0	50.213894436	4.922983590	500.000000000
252	2	0.0	47.371599061	6.563983590	500.000000000
253	1	0.0	49.266443696	9.845983590	498.329456000
254	1	0.0	46.424148321	8.204983590	498.329456000
255	1	0.0	49.266443696	9.845983590	501.670544000
256	1	0.0	46.424148321	8.204983590	501.670544000
257	2	0.0	50.213894436	8.204983590	500.000000000
258	2	0.0	47.371599061	9.845983590	500.000000000
259	1	0.0	49.266443696	13.127983590	498.329456000
260	1	0.0	46.424148321	11.486983590	498.329456000
261	1	0.0	49.266443696	13.127983590	501.670544000
262	1	0.0	46.424148321	11.486983590	501.670544000
263	2	0.0	50.213894436	11.486983590	500.000000000
264	2	0.0	47.371599061	13.127983590	500.000000000
265	1	0.0	49.266443696	16.409983590	498.329456000
266	1	0.0	46.424148321	14.768983590	498.329456000
267	1	0.0	49.266443696	16.409983590	501.670544000
268	1	0.0	46.424148321	14.768983590	501.670544000
269	2	0.0	50.213894436	14.768983590	500.000000000
270	2	0.0	47.371599061	16.409983590	500.000000000
271	1	0.0	54.951034446	3.281983590	498.329456000
272	1	0.0	52.108739071	1.640983590	498.329456000
273	1	0.0	54.951034446	3.281983590	501.670544000
274	1	0.0	52.108739071	1.640983590	501.670544000
275	2	0.0	55.898485187	1.640983590	500.000000000
276	2	0.0	53.056189811	3.281983590	500.000000000
277	1	0.0	54.951034446	6.563983590	498.329456000
278	1	0.0	52.108739071	4.922983590	498.329456000
279	1	0.0	54.951034446	6.563983590	501.670544000
280	1	0.0	52.108739071	4.922983590	501.670544000
281	2	0.0	55.898485187	4.922983590	500.000000000
282	2	0.0	53.056189811	6.563983590	500.000000000
283	1	0.0	54.951034446	9.845983590	498.329456000
284	1	0.0	52.108739071	8.204983590	498.329456000
285	1	0.0	54.951034446	9.845983590	501.670544000
286	1	0.0	52.108739071	8.204983590	501.670544000
287	2	0.0	55.898485187	8.204983590	500.000000000
288	2	0.0	53.056189811	9.845983590	500.000000000
289	1	0.0	54.951034446	13.127983590	498.329456000
290	1	0.0	52.108739071	11.486983590	498.329456000
291	1	0.0	54.951034446	13.127983590	501.670544000
292	1	0.0	52.108739071	11.486983590	501.670544000
293	2	0.0	55.898485187	11.486983590	500.000000000
294	2	0.0	53.056189811	13.127983590	500.000000000
295	1	0.0	54.951034446	16.409983590	498.329456000
296	1	0.0	52.108739071	14.768983590	498.329456000
297	1	0.0	54.951034446	16.409983590	501.670544000
298	1	0.0	52.108739071	14.768983590	501.670544000
299	2	0.0	55.898485187	14.768983590	500.000000000
300	2	0.0	53.056189811	16.409983590	500.000000000
301	2	0.0	114.639294171	11.486983590	500.000000000
302	2	0.0	114.639294171	8.204983590	500.000000000
303	2	0.0	114.639294171	4.922983590	500.000000000
304	1	0.0	57.793329822	11.486983590	498.329456000
305	1	0.0	57.793329822	11.486983590	501.670544000
306	1	0.0	57.793329822	8.204983590	498.329456000
307	1	0.0	57.793329822	8.204983590	501.670544000
308	1	0.0	57.793329822	4.922983590	498.329456000
309	1	0.0	57.793329822	4.922983590	501.670544000
310	1	0.0	110.849548056	4.922983590	498.329456000
311	1	0.0	113.691843431	3.281983590	498.329456000
312	1	0.0	110.849548056	4.922983590	501.670544000
313	1	0.0	113.691843431	3.281983590	501.670544000
314	2	0.0	109.902097315	3.281983590	500.000000000
315	2	0.0	112.744392691	4.922983590	500.000000000
316	1	0.0	110.849548056	8.204983590	498.329456000
317	1	0.0	113.691843431	6.563983590	498.329456000
318	1	0.0	110.849548056	8.204983590	501.670544000
319	1	0.0	113.691843431	6.563983590	501.670544000
320	2	0.0	109.902097315	6.563983590	500.000000000
321	2	0.0	112.744392691	8.204983590	500.000000000
322	1	0.0	110.849548056	11.486983590	498.329456000
323	1	0.0	113.691843431	9.845983590	498.329456000
324	1	0.0	110.849548056	11.486983590	501.670544000
325	1	0.0	113.691843431	9.845983590	501.670544000
326	2	0.0	109.902097315	9.845983590	500.000000000
327	2	0.0	112.744392691	11.486983590	500.000000000
328	1	0.0	110.849548056	14.768983590	498.329456000
329	1	0.0	113.691843431	13.127983590	498.329456000
330	1	0.0	110.849548056	14.768983590	501.670544000
331	1	0.0	113.691843431	13.127983590	501.670544000
332	2	0.0	109.902097315	13.127983590	500.000000000
333	2	0.0	112.744392691	14.768983590	500.000000000
334	1	0.0	110.849548056	1.640983590	498.329456000
335	1	0.0	113.691843431	16.409983590	498.329456000
336	1	0.0	110.849548056	1.640983590	501.670544000
337	1	0.0	113.691843431	16.409983590	501.670544000
338	2	0.0	109.902097315	16.409983590	500.000000000
339	2	0.0	112.744392691	1.640983590	500.000000000
340	1	0.0	105.164957305	4.922983590	498.329456000
341	1	0.0	108.007252681	3.281983590	498.329456000
342	1	0.0	105.164957305	4.922983590	501.670544000
343	1	0.0	108.007252681	3.281983590	501.670544000
344	2	0.0	104.217506565	3.281983590	500.000000000
345	2	0.0	107.059801940	4.922983590	500.000000000
346	1	0.0	105.164957305	8.204983590	498.329456000
347	1	0.0	108.007252681	6.563983590	498.329456000
348	1	0.0	105.164957305	8.204983590	501.670544000
349	1	0.0	108.007252681	6.563983590	501.670544000
350	2	0.0	104.217506565	6.563983590	500.000000000
351	2	0.0	107.059801940	8.204983590	500.000000000
352	1	0.0	105.164957305	11.486983590	498.329456000
353	1	0.0	108.007252681	9.845983590	498.329456000
354	1	0.0	105.164957305	11.486983590	501.670544000
355	1	0.0	108.007252681	9.845983590	501.670544000
356	2	0.0	104.217506565	9.845983590	500.000000000
357	2	0.0	107.059801940	11.486983590	500.000000000
358	1	0.0	105.164957305	14.768983590	498.329456000
359	1	0.0	108.007252681	13.127983590	498.329456000
360	1	0.0	105.164957305	14.768983590	501.670544000
361	1	0.0	108.007252681	13.127983590	501.670544000
362	2	0.0	104.217506565	13.127983590	500.000000000
363	2	0.0	107.059801940	14.768983590	500.000000000
364	1	0.0	105.164957305	1.640983590	498.329456000
365	1	0.0	108.007252681	16.409983590	498.329456000
366	1	0.0	105.164957305	1.640983590	501.670544000
367	1	0.0	108.007252681	16.409983590	501.670544000
368	2	0.0	104.217506565	16.409983590	500.000000000
369	2	0.0	107.059801940	1.640983590	500.000000000
370	1	0.0	99.480366555	4.922983590	498.329456000
371	1	0.0	102.322661930	3.281983590	498.329456000
372	1	0.0	99.480366555	4.922983590	501.670544000
373	1	0.0	102.322661930	3.281983590	501.670544000
374	2	0.0	98.532915815	3.281983590	500.000000000
375	2	0.0	101.375211190	4.922983590	500.000000000
376	1	0.0	99.480366555	8.204983590	498.329456000
377	1	0.0	102.322661930	6.563983590	498.329456000
378	1	0.0	99.480366555	8.204983590	501.670544000
379	1	0.0	102.322661930	6.563983590	501.670544000
380	2	0.0	98.532915815	6.563983590	500.000000000
381	2	0.0	101.375211190	8.204983590	500.000000000
382	1	0.0	99.480366555	11.486983590	498.329456000
383	1	0.0	102.322661930	9.845983590	498.329456000
384	1	0.0	99.480366555	11.486983590	501.670544000
385	1	0.0	102.322661930	9.845983590	501.670544000
386	2	0.0	98.532915815	9.845983590	500.000000000
387	2	0.0	101.375211190	11.486983590	500.000000000
388	1	0.0	99.480366555	14.768983590	498.329456000
389	1	0.0	102.322661930	13.127983590	498.329456000
390	1	0.0	99.480366555	14.768983590	501.670544000
391	1	0.0	102.322661930	13.127983590	501.670544000
392	2	0.0	98.532915815	13.127983590	500.000000000
393	2	0.0	101.375211190	14.768983590	500.000000000
394	1	0.0	99.480366555	1.640983590	498.329456000
395	1	0.0	102.322661930	16.409983590	498.329456000
396	1	0.0	99.480366555	1.640983590	501.670544000
397	1	0.0	102.322661930	16.409983590	501.670544000
398	2	0.0	98.532915815	16.409983590	500.000000000
399	2	0.0	101.375211190	1.640983590	500.000000000
400	1	0.0	93.795775805	4.922983590	498.329456000
401	1	0.0	96.638071180	3.281983590	498.329456000
402	1	0.0	93.795775805	4.922983590	501.670544000
403	1	0.0	96.638071180	3.281983590	501.670544000
404	2	0.0	92.848325064	3.281983590	500.000000000
405	2	0.0	95.690620439	4.922983590	500.000000000
406	1	0.0	93.795775805	8.204983590	498.329456000
407	1	0.0	96.638071180	6.563983590	498.329456000
408	1	0.0	93.795775805	8.204983590	501.670544000
409	1	0.0	96.638071180	6.563983590	501.670544000
410	2	0.0	92.848325064	6.563983590	500.000000000
411	2	0.0	95.690620439	8.204983590	500.000000000
412	1	0.0	93.795775805	11.486983590	498.329456000
413	1	0.0	96.638071180	9.845983590	498.329456000
414	1	0.0	93.795775805	11.486983590	501.670544000
415	1	0.0	96.638071180	9.845983590	501.670544000
416	2	0.0	92.848325064	9.845983590	500.000000000
417	2	0.0	95.690620439	11.486983590	500.000000000
418	1	0.0	93.795775805	14.768983590	498.329456000
419	1	0.0	96.638071180	13.127983590	498.329456000
420	1	0.0	93.795775805	14.768983590	501.670544000
421	1	0.0	96.638071180	13.127983590	501.670544000
422	2	0.0	92.848325064	13.127983590	500.000000000
423	2	0.0	95.690620439	14.768983590	500.000000000
424	1	0.0	93.795775805	1.640983590	498.329456000
425	1	0.0	96.638071180	16.409983590	498.329456000
426	1	0.0	93.795775805	1.640983590	501.670544000
427	1	0.0	96.638071180	16.409983590	501.670544000
428	2	0.0	92.848325064	16.409983590	500.000000000
429	2	0.0	95.690620439	1.640983590	500.000000000
430	1	0.0	88.111185054	4.922983590	498.329456000
431	1	0.0	90.953480429	3.281983590	498.329456000
432	1	0.0	88.111185054	4.922983590	501.670544000
433	1	0.0	90.953480429	3.281983590	501.670544000
434	2	0.0	87.163734314	3.281983590	500.000000000
435	2	0.0	90.006029689	4.922983590	500.000000000
436	1	0.0	88.111185054	8.204983590	498.329456000
437	1	0.0	90.953480429	6.563983590	498.329456000
438	1	0.0	88.111185054	8.204983590	501.670544000
439	1	0.0	90.953480429	6.563983590	501.670544000
440	2	0.0	87.163734314	6.563983590	500.000000000
441	2	0.0	90.006029689	8.204983590	500.000000000
442	1	0.0	88.111185054	11.486983590	498.329456000
443	1	0.0	90.953480429	9.845983590	498.329456000
444	1	0.0	88.111185054	11.486983590	501.670544000
445	1	0.0	90.953480429	9.845983590	501.670544000
446	2	0.0	87.163734314	9.845983590	500.000000000
447	2	0.0	90.006029689	11.486983590	500.000000000
448	1	0.0	88.111185054	14.768983590	498.329456000
449	1	0.0	90.953480429	13.127983590	498.329456000
450	1	0.0	88.111185054	14.768983590	501.670544000
451	1	0.0	90.953480429	13.127983590	501.670544000
452	2	0.0	87.163734314	13.127983590	500.000000000
453	2	0.0	90.006029689	14.768983590	500.000000000
454	1	0.0	88.111185054	1.640983590	498.329456000
455	1	0.0	90.953480429	16.409983590	498.329456000
456	1	0.0	88.111185054	1.640983590	501.670544000
457	1	0.0	90.953480429	16.409983590	501.670544000
458	2	0.0	87.163734314	16.409983590	500.000000000
459	2	0.0	90.006029689	1.640983590	500.000000000
460	1	0.0	82.426594304	4.922983590	498.329456000
461	1	0.0	85.268889679	3.281983590	498.329456000
462	1	0.0	82.426594304	4.922983590	501.670544000
463	1	0.0	85.268889679	3.281983590	501.670544000
464	2	0.0	81.479143563	3.281983590	500.000000000
465	2	0.0	84.321438939	4.922983590	500.000000000
466	1	0.0	82.426594304	8.204983590	498.329456000
467	1	0.0	85.268889679	6.563983590	498.329456000
468	1	0.0	82.426594304	8.204983590	501.670544000
469	1	0.0	85.268889679	6.563983590	501.670544000
470	2	0.0	81.479143563	6.563983590	500.000000000
471	2	0.0	84.321438939	8.204983590	500.000000000
472	1	0.0	82.426594304	11.486983590	498.329456000
473	1	0.0	85.268889679	9.845983590	498.329456000
474	1	0.0	82.426594304	11.486983590	501.670544000
475	1	0.0	85.268889679	9.845983590	501.670544000
476	2	0.0	81.479143563	9.845983590	500.000000000
477	2	0.0	84.321438939	11.486983590	500.000000000
478	1	0.0	82.426594304	14.768983590	498.329456000
479	1	0.0	85.268889679	13.127983590	498.329456000
480	1	0.0	82.426594304	14.768983590	501.670544000
481	1	0.0	85.268889679	13.127983590	501.670544000
482	2	0.0	81.479143563	13.127983590	500.000000000
483	2	0.0	84.321438939	14.768983590	500.000000000
484	1	0.0	82.426594304	1.640983590	498.329456000
485	1	0.0	85.268889679	16.409983590	498.329456000
486	1	0.0	82.426594304	1.640983590	501.670544000
487	1	0.0	85.268889679	16.409983590	501.670544000
488	2	0.0	81.479143563	16.409983590	500.000000000
489	2	0.0	84.321438939	1.640983590	500.000000000
490	1	0.0	76.742003553	4.922983590	498.329456000
491	1	0.0	79.584298929	3.281983590	498.329456000
492	1	0.0	76.742003553	4.922983590	501.670544000
493	1	0.0	79.584298929	3.281983590	501.670544000
494	2	0.0	75.794552813	3.281983590	500.000000000
495	2	0.0	78.636848188	4.922983590	500.000000000
496	1	0.0	76.742003553	8.204983590	498.329456000
497	1	0.0	79.584298929	6.563983590	498.329456000
498	1	0.0	76.742003553	8.204983590	501.670544000
499	1	0.0	79.584298929	6.563983590	501.670544000
500	2	0.0	75.794552813	6.563983590	500.000000000
501	2	0.0	78.636848188	8.204983590	500.000000000
502	1	0.0	76.742003553	11.486983590	498.329456000
503	1	0.0	79.584298929	9.845983590	498.329456000
504	1	0.0	76.742003553	11.486983590	501.670544000
505	1	0.0	79.584298929	9.845983590	501.670544000
506	2	0.0	75.794552813	9.845983590	500.000000000
507	2	0.0	78.636848188	11.486983590	500.000000000
508	1	0.0	76.742003553	14.768983590	498.329456000
509	1	0.0	79.584298929	13.127983590	498.329456000
510	1	0.0	76.742003553	14.768983590	501.670544000
511	1	0.0	79.584298929	13.127983590	501.670544000
512	2	0.0	75.794552813	13.127983590	500.000000000
513	2	0.0	78.636848188	14.768983590	500.000000000
514	1	0.0	76.742003553	1.640983590	498.329456000
515	1	0.0	79.584298929	16.409983590	498.329456000
516	1	0.0	76.742003553	1.640983590	501.670544000
517	1	0.0	79.584298929	16.409983590	501.670544000
518	2	0.0	75.794552813	16.409983590	500.000000000
519	2	0.0	78.636848188	1.640983590	500.000000000
520	1	0.0	71.057412803	4.922983590	498.329456000
521	1	0.0	73.899708178	3.281983590	498.329456000
522	1	0.0	71.057412803	4.922983590	501.670544000
523	1	0.0	73.899708178	3.281983590	501.670544000
524	2	0.0	70.109962063	3.281983590	500.000000000
525	2	0.0	72.952257438	4.922983590	500.000000000
526	1	0.0	71.057412803	8.204983590	498.329456000
527	1	0.0	73.899708178	6.563983590	498.329456000
528	1	0.0	71.057412803	8.204983590	501.670544000
529	1	0.0	73.899708178	6.563983590	501.670544000
530	2	0.0	70.109962063	6.563983590	500.000000000
531	2	0.0	72.952257438	8.204983590	500.000000000
532	1	0.0	71.057412803	11.486983590	498.329456000
533	1	0.0	73.899708178	9.845983590	498.329456000
534	1	0.0	71.057412803	11.486983590	501.670544000
535	1	0.0	73.899708178	9.845983590	501.670544000
536	2	0.0	70.109962063	9.845983590	500.000000000
537	2	0.0	72.952257438	11.486983590	500.000000000
538	1	0.0	71.057412803	14.768983590	498.329456000
539	1	0.0	73.899708178	13.127983590	498.329456000
540	1	0.0	71.057412803	14.768983590	501.670544000
541	1	0.0	73.899708178	13.127983590	501.670544000
542	2	0.0	70.109962063	13.127983590	500.000000000
543	2	0.0	72.952257438	14.768983590	500.000000000
544	1	0.0	71.057412803	1.640983590	498.329456000
545	1	0.0	73.899708178	16.409983590	498.329456000
546	1	0.0	71.057412803	1.640983590	501.670544000
547	1	0.0	73.899708178	16.409983590	501.670544000
548	2	0.0	70.109962063	16.409983590	500.000000000
549	2	0.0	72.952257438	1.640983590	500.000000000
550	1	0.0	65.372822053	4.922983590	498.329456000
551	1	0.0	68.215117428	3.281983590	498.329456000
552	1	0.0	65.372822053	4.922983590	501.670544000
553	1	0.0	68.215117428	3.281983590	501.670544000
554	2	0.0	64.425371312	3.281983590	500.000000000
555	2	0.0	67.267666687	4.922983590	500.000000000
556	1	0.0	65.372822053	8.204983590	498.329456000
557	1	0.0	68.215117428	6.563983590	498.329456000
558	1	0.0	65.372822053	8.204983590	501.670544000
559	1	0.0	68.215117428	6.563983590	501.670544000
560	2	0.0	64.425371312	6.563983590	500.000000000
561	2	0.0	67.267666687	8.204983590	500.000000000
562	1	0.0	65.372822053	11.486983590	498.329456000
563	1	0.0	68.215117428	9.845983590	498.329456000
564	1	0.0	65.372822053	11.486983590	501.670544000
565	1	0.0	68.215117428	9.845983590	501.670544000
566	2	0.0	64.425371312	9.845983590	500.000000000
567	2	0.0	67.267666687	11.486983590	500.000000000
568	1	0.0	65.372822053	14.768983590	498.329456000
569	1	0.0	68.215117428	13.127983590	498.329456000
570	1	0.0	65.372822053	14.768983590	501.670544000
571	1	0.0	68.215117428	13.127983590	501.670544000
572	2	0.0	64.425371312	13.127983590	500.000000000
573	2	0.0	67.267666687	14.768983590	500.000000000
574	1	0.0	65.372822053	1.640983590	498.329456000
575	1	0.0	68.215117428	16.409983590	498.329456000
576	1	0.0	65.372822053	1.640983590	501.670544000
577	1	0.0	68.215117428	16.409983590	501.670544000
578	2	0.0	64.425371312	16.409983590	500.000000000
579	2	0.0	67.267666687	1.640983590	500.000000000
580	1	0.0	59.688231302	4.922983590	498.329456000
581	1	0.0	62.530526677	3.281983590	498.329456000
582	1	0.0	59.688231302	4.922983590	501.670544000
583	1	0.0	62.530526677	3.281983590	501.670544000
584	2	0.0	58.740780562	3.281983590	500.000000000
585	2	0.0	61.583075937	4.922983590	500.000000000
586	1	0.0	59.688231302	8.204983590	498.329456000
587	1	0.0	62.530526677	6.563983590	498.329456000
588	1	0.0	59.688231302	8.204983590	501.670544000
589	1	0.0	62.530526677	6.563983590	501.670544000
590	2	0.0	58.740780562	6.563983590	500.000000000
591	2	0.0	61.583075937	8.204983590	500.000000000
592	1	0.0	59.688231302	11.486983590	498.329456000